108
Lattice="13.365 0.0 0.0 0.0 13.365 0.0 0.0 0.0 13.365" Properties=species:S:1:pos:R:3:Z:I:1:forces:R:3 energy=-365.646730795 pbc="T T T"
Al     -0.64376693      -0.25235430       1.34457695       13       0.17458618       0.13126883      -0.79418689 
Al      0.50940203       2.50841737       2.31707132       13      -0.35555579      -0.29096963       0.08033537 
Al      1.60012568      -0.23551402       2.89097500       13       0.26832722       0.39322909      -0.79873364 
Al      0.53383873       1.07109254      -0.60892063       13       0.28779557       0.23254230      -0.34647487 
Al     -0.63201950       0.66431934       4.28662470       13      -0.32189118      -0.11650567       0.18880998 
Al      1.06045232       2.29233776       5.43336679       13       0.32631060       0.63372609       0.19417215 
Al      1.84497449      -0.03740503       6.88835796       13      -0.40537433      -0.12989240       0.22410727 
Al      3.22177836       2.39163781       3.47810381       13      -0.58493542      -0.42908697      -0.09600870 
Al     -0.17656540      -0.54240112       9.07217335       13       0.15252563       0.29383289      -0.28768251 
Al      1.70151479       2.80125355      10.61504530       13      -0.33890590       0.34522434       0.07204317 
Al      3.55713100       0.93093327      10.69825752       13       0.10571677      -0.35157894       0.01417280 
Al      2.44616501       2.11325189       8.04267075       13      -0.48405640       1.07221808       0.46000416 
Al      0.54437098       3.94713931      -0.46896550       13      -0.35389019       0.08567226      -0.02989682 
Al     -0.59839183       6.96858775       1.66575139       13      -0.45040829      -0.51182656       0.24957439 
Al      1.53443964       5.06956027       1.94019229       13      -0.15575348       0.20557784       0.12499338 
Al      1.67833011       7.86629383       0.89372915       13       0.59738786       0.23468791      -0.60219007 
Al     -0.70181675       4.92953715       3.91337325       13       0.20173822      -0.04744882      -0.13141899 
Al      0.63445879       6.71229942       6.26848653       13      -0.16391571      -0.00790935      -0.21900110 
Al      2.54577807       4.80320983       4.67113979       13      -0.46753314       0.01992960       0.36125697 
Al      1.95951398       7.28759567       3.57298762       13      -0.58816288       0.13220713       0.26522862 
Al      1.15343469       4.56108395       8.16935611       13       0.03380220       0.04371599      -0.03737552 
Al      0.88362141       6.60540204      11.61832663       13       0.05914251       0.17703188      -0.05658100 
Al      3.15807766       5.29711200      10.09805718       13       0.20826413      -0.44259063       0.42607716 
Al      2.53177999       7.66474934       9.15985287       13      -0.16264796       0.59419576      -0.28840267 
Al     -0.01847475      10.21859360       0.92492569       13       0.08120314      -0.01376369      -0.13306265 
Al     -1.15002581      11.53125350       3.28464524       13       0.17966021      -0.59075334       0.58030065 
Al      2.03017128      10.23796959       2.67691765       13       0.41289392      -0.21575202       0.18428163 
Al      2.22572103      12.14325511      -0.05229263       13      -0.10680963       0.46546083       0.34443286 
Al     -0.06098991       9.26614570       4.57775279       13       0.21498538      -0.45007618       0.08667795 
Al     -0.61572174      11.54635274       6.78194106       13      -0.74577277      -0.14451596       0.31496354 
Al      2.23313600       9.39004467       6.57557441       13      -0.33257945       0.62995896       0.24179558 
Al      1.23180122      11.69230785       5.05778579       13       0.57900596      -0.61917355      -0.85914392 
Al      0.21684168       9.27348960       9.81019199       13      -0.04553715      -0.22124793      -0.12927648 
Al      0.22683180      11.51619502      11.41453130       13      -0.07837698      -0.14785229       0.27863565 
Al      2.01708051       9.72074959      12.08782785       13       0.20668671      -0.73123405       0.01939981 
Al      2.72350462      11.69528475       8.97562468       13      -0.38998402       0.32336064       0.41586328 
Al      4.39960704       0.62133699       1.24912644       13      -0.21640405       0.93013582      -0.15438552 
Al      2.82081653       2.86805722       0.83331782       13       0.10835247      -0.07750975      -0.42456027 
Al      7.12599191      -0.19816872       1.78852151       13       0.02327753      -0.36368157      -0.28809651 
Al      6.81773066       2.37385930       0.32835132       13      -0.45313422      -0.52842240       0.00969706 
Al      3.83710557      -0.35679543       4.25846886       13      -0.34215686       0.69611551      -0.30109668 
Al      4.28544348       2.06835118       5.99079166       13       0.06645115       0.22832186      -0.83249440 
Al      7.56590594       0.02180418       6.50715484       13      -0.30948790      -0.11255329      -0.01151679 
Al      5.82546733       2.13692424       3.12909971       13       0.65009376      -0.99798695      -0.62019122 
Al      4.78366458       0.97696046       8.19092630       13       1.07315857      -0.72443743       0.92521546 
Al      4.65537475       3.34940247      12.18635284       13      -0.08142520      -0.13343234      -0.37256763 
Al      5.91721190       0.05307963      12.04842767       13       0.30277634       0.08504106      -0.04315968 
Al      7.44456341       1.48535684       9.78499431       13      -0.09055568      -0.30083907      -0.00443083 
Al      3.24843096       5.63650612      -0.28756611       13       0.09216652       0.12467540       0.03431229 
Al      4.29938108       5.80375362       2.44965021       13      -0.34519504       0.84103166      -0.72172096 
Al      7.12803451       4.85277975       2.55519942       13       0.36850109      -0.05027746      -0.61535858 
Al      6.67467294       7.06971648       0.30277312       13       0.05516418      -0.18933752      -0.19558299 
Al      5.19744409       4.24133557       4.23746284       13      -0.07574907       0.52712075       1.78004231 
Al      3.38653130       7.13030452       6.19076859       13       0.54189783      -0.71140855       0.18183413 
Al      6.38595323       3.54926197       8.05762209       13       0.55327378      -0.17152388       0.07876089 
Al      6.34218218       6.02123597       6.26448568       13       0.53730822      -0.05841479      -0.59070587 
Al      4.04752073       4.57587937       7.26519335       13      -0.90561747      -0.30924303      -0.44121383 
Al      4.28626827       8.19853580      11.35283785       13       0.08474239      -0.10306152       0.10655723 
Al      6.55942158       4.88546954      10.76411198       13      -0.92761996      -0.39123190      -0.22177194 
Al      5.28255192       6.45427155       8.62763999       13       0.13525710       0.54638877       0.79624083 
Al      4.37652141       8.80125881       0.90585077       13      -0.57183826      -0.26544378      -0.37153039 
Al      4.40749293      11.48465992       1.59105750       13       0.06537771      -0.67295554       0.30557906 
Al      6.39303563       8.68557063       2.66151547       13       0.65350586       0.13446357       0.25005646 
Al      6.71632241      10.30820142       0.37215114       13       0.20905490       0.24538923      -0.35788196 
Al      4.20223089       8.54243057       4.02166427       13      -0.02116906       0.41995382       0.14132826 
Al      4.22274257      12.02221637       6.65998360       13       0.50724674      -0.51310854       0.19785924 
Al      7.12299075       9.49468727       7.73710156       13       0.44851800      -0.26013660      -0.16926922 
Al      5.91360972      11.46160423       4.09251471       13       0.67528007      -0.45024315      -0.02147464 
Al      4.54274792       9.79064482       8.60979840       13       0.11235554      -0.33671531       0.11680138 
Al      4.31461530      11.19423372      11.47257934       13       0.14566619      -0.00496490      -0.13516161 
Al      6.79278330       8.88827230      10.49571785       13      -0.26314479       0.11027008      -0.09686088 
Al      6.94081870      11.98595536       9.08528630       13       0.17230240       0.15416839       0.16948984 
Al      9.94515419      -0.44181835       0.10655934       13      -0.33231768       1.35523527       1.13992574 
Al      8.24706695       1.26794419       3.80067538       13       0.21287513      -0.33833452       0.47952117 
Al     10.56585586       0.72146513       2.60521173       13      -0.35727423      -0.73223157       0.94465705 
Al     11.11457128       2.18761775       0.66472694       13       0.63952108       0.56885221      -1.10350158 
Al     10.23299180      -0.52744388       5.60385106       13       0.17712625      -0.06800789      -0.07844323 
Al      9.25176159       2.01981031       7.43966862       13       0.22122634       0.05897392       0.07061392 
Al     11.96814243       1.21808852       7.01108183       13       0.14839999       0.07255803       0.16168735 
Al     10.97443487       3.65397091       5.75975521       13      -0.26932943       0.12379962      -0.16851017 
Al     10.09677618      -0.19494980       8.88361374       13      -0.04962004       0.42268159       0.21372358 
Al      9.61218559       2.03938247      11.61323994       13      -0.03768069      -0.89394126       0.52741175 
Al     11.60674764      -0.19199455      11.26219580       13      -0.33662207       0.69140253       0.08807217 
Al     11.99464098       2.44727955       9.89230195       13       0.07114542      -0.43478014      -0.08496929 
Al      8.80409225       3.99558380       0.24742161       13       0.55628638       0.69876866       0.06798644 
Al      8.83110879       5.84284702       4.46449434       13      -0.29399042      -1.34490108      -0.02450391 
Al      9.90351357       3.40400330       2.81528742       13      -0.09669077       0.36191711       0.45383760 
Al     10.28997008       6.48649823       0.40848211       13      -0.12641998       0.05866900      -0.34382081 
Al      7.87377779       3.34451088       5.53032790       13      -0.25555990       0.34455039      -0.08294613 
Al      9.33579298       5.74681813       7.47787252       13       0.00499979      -0.22406880      -0.11877347 
Al     12.24617485       5.23388625       9.65783890       13       0.05257993      -0.03444717      -0.29068536 
Al     11.05259123       6.92771863       5.20877685       13       0.64999727       0.42273392       0.33738553 
Al      9.28269098       3.67327575       9.60209771       13       0.04106923       0.37775744      -0.51191573 
Al      8.85651889       5.85577649      11.09705220       13       0.81086008       0.48911610       0.60486938 
Al     11.18396573       4.28621516      11.98065546       13       0.00602289       0.16888772       0.26867707 
Al     11.47979283       7.44481525      11.05093005       13       0.00242941      -0.13810309       0.19873620 
Al      8.93654528       8.80217633       1.49140227       13      -1.22385297       0.08285767      -0.45537693 
Al      9.54766990      11.50141258       3.15484033       13      -0.67330906      -0.21534702      -0.19920018 
Al     11.18677425       8.99192708       2.42317452       13       0.93184222       0.40653840       0.67780856 
Al     10.94463306      10.61461851      -0.20544990       13       0.19399798      -0.64676200       0.04278284 
Al      8.14804563       8.25297010       4.77396275       13      -0.10574572       1.03824703       0.43088276 
Al      9.93351475      10.74420453       8.00284636       13      -0.35484537      -0.58192981      -0.39046895 
Al     12.11700622       8.51571754       7.45105102       13       0.06252900       0.01390789       0.08502501 
Al     10.79727679       9.94146533       5.50123569       13      -0.59791292      -0.01306629      -0.40576748 
Al      9.23303868       7.90636376       9.30619632       13      -0.09203126       0.37199327      -0.39380888 
Al      9.03330555      11.88860085      11.37789693       13      -0.96654248      -0.02297654      -0.81717260 
Al      8.96037444       8.63083038      12.05848436       13       0.11213468      -0.06834486       0.53623649 
Al     10.74254821      10.06335107      10.48219513       13       0.74332841      -0.24040580      -0.28227294 
