108
Lattice="12.15 0.0 0.0 0.0 12.15 0.0 0.0 0.0 12.15" Properties=species:S:1:pos:R:3:Z:I:1:forces:R:3 energy=-391.537232925 pbc="T T T"
Al     -0.39849268      -0.40808768      -0.09962245       13       0.63008355      -0.62280855       0.72884865 
Al     -0.66536894       1.58496554       2.03522790       13       0.64059070      -0.78762366      -0.09864957 
Al      1.92614018      -0.31195737       1.76343425       13      -0.75191113       0.08314930       0.13153896 
Al      1.52233776       1.91464834      -0.03813604       13      -0.57072942      -1.59257012       0.20912107 
Al     -0.37635368      -0.61782712       3.77766972       13       0.21791115      -0.14716847       0.17336057 
Al     -0.24545118       1.25231869       6.24846035       13      -0.08663441       1.36029215      -1.10938997 
Al      1.80889924      -0.79180135       5.75907473       13      -0.18203418      -0.29054856       0.28695008 
Al      1.68380145       1.37330395       4.08461856       13      -0.26704188       0.19236160       0.27336742 
Al     -0.12652649      -0.70862992       7.70665956       13      -0.07916004      -0.74798055       1.44533785 
Al     -0.38908723       1.40456726      10.13516704       13       0.21175163       0.47047620      -0.47745397 
Al      1.32422427      -0.87822025      10.11262685       13       1.23227025       0.97366963      -0.33200927 
Al      1.80092503       1.39130444       8.07978827       13      -0.32091578      -0.76451959       0.71750024 
Al     -0.56422396       3.61639696       0.11307294       13       0.31638594      -0.63801014      -0.47917627 
Al     -0.34109518       5.58650101       1.98623098       13      -0.59206882      -0.12405470       0.35425029 
Al      1.65039013       3.32016212       2.26021096       13       0.01860311       0.67283090      -0.23775816 
Al      1.62155452       5.30820706       0.21150033       13       0.33359278      -0.03019065      -0.51440239 
Al     -0.33155251       3.45137271       4.02597028       13      -0.33076283       0.09601910       0.52958887 
Al     -0.36636378       5.32917347       6.11612712       13       0.28719326       0.25371927      -0.29610657 
Al      1.77097260       3.35359965       6.46908248       13      -0.34738960       0.78097023      -0.77843224 
Al      1.51900009       5.66211394       4.05522922       13       0.34402667      -1.47457945      -0.54681010 
Al     -0.58011297       3.55931330       8.17398089       13       0.63146390      -0.41090593      -0.28069867 
Al     -0.03061369       5.38635282      10.22757459       13      -1.40606765       0.66631624      -0.06273600 
Al      1.57245343       3.41651378       9.93689082       13       0.40331753      -0.47842741       0.29417938 
Al      1.89171841       5.56704688       8.30968863       13      -0.02226019      -0.21416618      -0.71997177 
Al     -0.22148018       7.57939520      -0.05937048       13      -0.44400538      -0.59137220       0.12628445 
Al     -0.40373384       9.47990245       1.94076582       13       0.99699513       0.16527589      -0.60126107 
Al      1.61394213       7.40802885       1.91615268       13       0.60130536       0.35257879       0.04545233 
Al      1.86595922       9.50775061       0.03805899       13      -0.36855554       0.09298472      -0.04830556 
Al     -0.38057621       7.66968473       3.87668989       13       0.34577805      -0.72746592       0.42281620 
Al     -0.56902644       9.42285279       6.02016611       13       1.42790044       0.52065240      -0.08145918 
Al      1.71977733       7.49245333       5.65001120       13      -0.64800453       1.18970904       1.75313658 
Al      1.79716919       9.57392097       3.48303401       13      -0.40102148       0.31576168       1.23486229 
Al     -0.15031631       7.34665345       8.11038896       13      -0.52950820      -0.05851436      -0.16359049 
Al     -0.30755961       9.32566549      10.19982128       13      -0.33750602      -0.19554268      -0.24839211 
Al      1.85416465       7.33754093      10.27970593       13       0.06609297       0.43266178       0.14503096 
Al      1.60098411       9.23910187       8.29066614       13       0.53763352       0.67688731      -0.85091052 
Al      3.90753284      -0.42087977      -0.03459329       13      -0.56458139      -0.52718941       0.19674570 
Al      3.80580064       1.70735633       2.23680504       13      -0.16004060      -0.18631173      -0.66388016 
Al      5.83365713      -0.65037267       1.99270531       13       0.35386449       0.28536620       0.16329976 
Al      5.85545370       1.38172663      -0.01960402       13       0.08902994       0.31553045       0.23009603 
Al      3.79176689      -0.32601305       3.97304868       13      -0.09245512      -1.20685247      -0.05532584 
Al      3.78548089       1.44729765       6.20458419       13      -0.09837495       0.20908174       0.05700761 
Al      5.65168290      -0.47933551       6.12401041       13       0.31357405      -0.61333699      -0.08758200 
Al      5.65091839       1.46191490       4.09724527       13       1.06337256       0.45196726       0.21400967 
Al      3.62512157      -0.64325778       8.09228361       13      -0.08501794      -0.24927738       0.03654616 
Al      3.72826410       1.27662889      10.16254129       13      -0.33554723       0.30716303      -0.11270603 
Al      5.74349836      -0.62687224      10.12585253       13      -0.34667731      -0.01456432      -0.55679723 
Al      5.87676079       1.47153879       8.26379759       13      -0.79204636      -0.12671765      -0.17393946 
Al      3.55784533       3.33242906       0.00745472       13       1.25433318       0.55309415       0.07294107 
Al      3.59903406       5.42579427       2.07917571       13       0.03261513      -0.23153348       0.45337976 
Al      5.86528134       3.45321042       2.03005466       13      -0.52800374       0.06546722       0.22414179 
Al      5.60779524       5.51510354       0.19318883       13       0.44834711      -0.76617945      -0.91996881 
Al      3.66883631       3.58554913       4.42815635       13      -0.25451949       0.08696537      -0.53068084 
Al      3.68500564       5.62939806       6.31691606       13       0.33644492      -0.89166774      -0.69845428 
Al      5.81660626       3.52381944       6.10946149       13      -0.32958223       0.13845637       0.64613795 
Al      5.67012883       5.55891079       3.92850433       13       0.21558061      -0.54685850       0.53765923 
Al      3.82785340       3.39895668       8.45388606       13      -0.03634918       0.21236508      -0.94467769 
Al      3.73967088       5.37107184      10.34172151       13       0.34199723       0.06544589      -0.29219414 
Al      5.83340520       3.35167658      10.11548408       13       0.04085118       0.19133469       0.73611519 
Al      5.94306063       5.47994106       8.07987790       13      -0.39099266      -0.05042935       0.18880781 
Al      3.82945580       7.33704750       0.07684537       13      -0.67813667       0.93400487      -0.04800601 
Al      3.77812395       9.74919852       1.90927719       13       0.75107368      -0.56116921       0.04390890 
Al      5.71909560       7.42647476       2.04311554       13      -0.36569686       0.56453345       0.05092807 
Al      5.75733686       9.49060787      -0.10666312       13      -0.22613540      -0.18569461       0.15893001 
Al      3.79297915       7.53811943       4.10918987       13       0.14215596      -0.28600436      -1.22407197 
Al      3.78487991       9.36692883       5.89320516       13      -0.47398585       1.29205189      -0.04070878 
Al      5.87995550       7.45914140       5.91458515       13      -0.02914746      -0.25048862       0.14022809 
Al      5.96833171       9.52041582       4.17340117       13      -0.33375404       0.30819613      -0.57104834 
Al      3.82883059       7.66963968       7.85330021       13      -0.63110300      -0.84434086       1.11391122 
Al      3.78284165       9.41580210      10.17660290       13      -0.45076750       0.38856494      -0.26882610 
Al      5.75595296       7.57935642      10.06211373       13      -0.17833496      -0.68812250      -0.18928595 
Al      5.53989653       9.49193346       7.92059396       13       1.10015571       0.95533086       0.34368105 
Al      7.78777085      -0.74613424      -0.22297810       13       0.01597680       0.29659869       0.78231122 
Al      7.76047807       1.52367336       2.12012081       13       0.25878716      -0.69080820       0.15712009 
Al      9.74889883      -1.19145227       1.55594258       13      -0.65488090       1.71794828       1.38310274 
Al      9.72785672       1.26089516      -0.12908373       13      -0.37396489       0.52828187       0.30895708 
Al      7.93496588      -0.65669127       4.05123557       13      -0.49700859      -0.22501250      -0.24345419 
Al      7.62105466       1.36621569       6.38779115       13       0.71888076       0.45705592      -1.20700762 
Al      9.88033048      -0.65411153       6.05044120       13      -0.48907864      -0.34093356       0.36524568 
Al      9.75839850       1.21386431       4.26842962       13       0.08437798       1.06985672      -0.62889980 
Al      7.81207721      -0.62146548       8.09265819       13       0.03407727      -0.47951960      -0.40463981 
Al      7.82250901       1.17092296      10.05804709       13       0.18521935       0.83784105       0.31113879 
Al      9.99256482      -0.70442670       9.92631673       13      -0.14988785       0.45381670       0.11408374 
Al      9.79882872       1.51155846       8.14549541       13       0.15019474      -0.58087024      -0.20521916 
Al      7.79442867       3.43229977       0.02047708       13      -0.19648184      -0.54431851      -0.00723337 
Al      7.61820289       5.52364271       1.85063981       13       0.96331009       0.08625550       0.49622591 
Al      9.67959354       3.45845150       1.95226490       13      -0.33229424       0.48521624       0.72492158 
Al      9.81047113       5.53039805      -0.01178001       13       0.08043248       0.24297450      -0.01263982 
Al      7.68699548       3.60253150       4.32547836       13       0.00696250      -0.24596340      -1.17209938 
Al      8.08201019       5.77230237       6.09066837       13      -0.86658832      -0.86346047      -0.16279703 
Al      9.68227975       3.41731266       5.94582400       13       0.70658623      -0.02874448       0.38191585 
Al      9.76989510       5.65279689       3.89865250       13       0.64821043      -0.83353908      -0.05726704 
Al      8.03978010       3.56674316       8.18669322       13      -1.20459170      -0.15853553      -0.97011806 
Al      7.74500599       5.24057521      10.28966058       13      -0.47127264       0.68697195      -0.79359052 
Al      9.65717955       3.52020877      10.07971206       13       1.20110085      -0.49438628       1.04894789 
Al      9.86048396       5.62076188       8.04752698       13      -0.03528436      -0.31792802       0.08510789 
Al      7.87247538       7.33585600      -0.41512903       13      -0.79069821       0.72758634       1.38368189 
Al      7.54773416       9.25302243       1.80327830       13       0.47149038       0.68148595       0.25771067 
Al      9.73729606       7.73019755       1.83128029       13       0.10908221      -1.35443829      -0.65637736 
Al      9.69599141       9.35455143      -0.31963482       13       0.07685102      -0.43697176      -0.72712369 
Al      7.96748192       7.43576635       3.88920347       13      -1.23657192       0.18434815       0.21828707 
Al      7.85548181       9.40353265       6.13241480       13       0.03282358       0.85947089      -0.32317730 
Al      9.88921030       7.64907149       6.11591151       13      -0.21566276      -0.89200895      -0.01683063 
Al      9.77373658       9.28473772       3.83252309       13      -0.35537787       1.66206003       0.85636522 
Al      7.61291574       7.62759330       8.03049720       13       0.37345999      -0.27922050       0.47853059 
Al      7.62930768       9.66461528       9.96645765       13       0.07298765      -0.82875646       0.03101969 
Al      9.64724245       7.34756063       9.91235165       13       0.81955434      -0.45614363       0.63603195 
Al      9.79362368       9.34807755       8.42652778       13       0.19955702       0.57656892      -1.60558916 
