108
Lattice="10.935 0.0 0.0 0.0 10.935 0.0 0.0 0.0 10.935" Properties=species:S:1:pos:R:3:Z:I:1:forces:R:3 energy=-334.762837729 pbc="T T T"
Al      0.51166537      -0.43540989      -0.23708227       13      -1.06878704       0.24862453      -0.49650916 
Al      0.45777009       1.43781726       1.71744359       13       0.87148280       0.86368456      -1.45846120 
Al      2.27775981      -0.17806236       1.66682938       13      -0.22088752      -1.19827328      -0.60097693 
Al      2.25674473       1.23970468      -0.33498356       13      -0.99551363       2.77020463      -0.13229672 
Al      0.38297019      -0.44059348       3.38606385       13       1.54801230       0.49052619       0.89310555 
Al      0.54282477       1.50881374       5.24442241       13      -0.50327367      -1.18997761      -0.75586923 
Al      2.23248328      -0.47995431       5.07115601       13       0.79084897       0.79806867       0.84506988 
Al      2.44082509       1.48133429       3.53390458       13      -1.34346682      -0.15210490      -2.42342602 
Al      0.59243584      -0.35779989       6.93998325       13      -0.89749448      -1.02843362      -0.34769409 
Al      0.43287834       1.36743413       8.80675033       13       0.23977791       0.45680570       0.45109971 
Al      2.23879978      -0.45928412       8.70976672       13       0.23691901      -0.40724001       0.44715860 
Al      2.27619095       1.54099760       7.07758729       13       0.19317155      -0.49929551      -0.47014846 
Al      0.48874964       3.33210665      -0.23942147       13      -0.80033821      -0.81412404      -0.53840808 
Al      0.34425833       4.92073777       1.64181206       13       0.08459523       1.88079605      -0.82860648 
Al      2.21696846       3.26272565       1.44937479       13       1.45295306      -0.73465603       0.84676071 
Al      2.34604093       5.21039928      -0.20447589       13      -0.20489194      -0.62298402      -0.61254585 
Al      0.58602460       3.22361099       3.41779586       13      -1.29607289       0.16810680      -0.37167839 
Al      0.35100250       5.03615126       5.14093523       13       1.31772138       1.11678514      -0.22764452 
Al      2.26859607       3.31167222       5.15219158       13       0.41375515       1.19760582       1.57225604 
Al      2.34032285       5.06889093       3.26111613       13      -0.76871903      -0.20520911       0.54787220 
Al      0.42812788       3.22534856       7.06495746       13      -0.25921584       0.75725818       0.29045158 
Al      0.31365938       5.10778736       8.98392596       13       0.60743982      -0.34143298      -1.34521686 
Al      2.21261457       3.26941545       8.85021273       13       0.38012642       0.61414443       0.03706573 
Al      2.09713898       5.19544866       7.01415804       13       2.14190137      -2.07367952       0.50104909 
Al      0.49902212       6.96474338      -0.40882981       13      -0.85868242      -0.03039331       1.22496350 
Al      0.31404671       8.69884375       1.51705303       13       0.81646613      -0.03115451       0.36995998 
Al      2.14553924       6.91812308       1.55113073       13       0.54355247      -0.00290184      -0.20840611 
Al      2.22909224       8.79657615      -0.15651619       13       0.56576123      -0.70225123      -0.84688726 
Al      0.37130064       6.77245447       3.37601636       13       0.66818756       0.91573153      -0.09468549 
Al      0.53340820       8.65528358       5.18333560       13      -0.09174011       0.10692460      -0.29150048 
Al      2.42453729       6.82897970       5.06814971       13      -1.75492229       0.50277934       0.03111265 
Al      2.29959299       8.81305208       3.22096113       13      -1.35508424      -1.31018592       1.22750709 
Al      0.62022055       6.93396751       6.89298647       13      -2.50182419       0.27143207       1.03510643 
Al      0.28830567       8.77125144       8.68535068       13       2.02036188      -0.67451753       0.52389550 
Al      2.38292963       6.97738025       8.84758985       13      -0.67198039      -0.25442196       0.12871547 
Al      2.40467296       8.58210904       6.86884514       13      -1.19506626       1.61509115       1.32042257 
Al      3.92040036      -0.36797044      -0.36536526       13       1.91401954      -1.01792978       0.52865881 
Al      4.18509052       1.44468699       1.36705206       13      -0.71416410      -0.13299135       1.39159348 
Al      6.02772820      -0.37646602       1.45266187       13      -1.71937999      -0.59910688       1.32800478 
Al      5.99727244       1.26477922      -0.39552703       13      -0.04296061       1.52572102       0.66976604 
Al      4.08864160      -0.41568562       3.33612864       13       0.46360732       0.76250234       0.94307875 
Al      3.97565329       1.55111587       5.25662645       13       1.99643350      -0.68936576       0.06379831 
Al      5.87333947      -0.29835050       5.12224833       13      -0.02469203      -0.25011531       0.88010009 
Al      5.78303625       1.33432011       3.32504061       13      -0.23297159       1.59989484       0.43992352 
Al      4.04479669      -0.29871648       6.90892752       13       0.21623192      -1.01410532       0.54357123 
Al      4.12823404       1.37736866       8.77805809       13      -0.58448369       0.25959546       0.39939561 
Al      5.92890243      -0.38068547       8.89627470       13      -0.28407250      -0.85407989      -1.09875803 
Al      5.90104796       1.38917547       6.99252716       13       0.37497878       0.75608674      -0.20822642 
Al      3.99739541       3.15802291      -0.35801913       13       0.50197160       0.88401787       0.41730040 
Al      4.18886991       5.05498675       1.57803471       13       0.07407540       0.37296100      -1.06182599 
Al      5.93924964       3.19554960       1.37529104       13       0.10719056       0.42240284       0.70510146 
Al      6.00103071       5.08631840      -0.29724816       13      -0.53449581       0.06850109       0.47483756 
Al      4.13590336       3.32605327       3.39483031       13       0.68485728      -0.50263086      -0.59897853 
Al      4.11908439       5.09579342       5.22564778       13      -0.33545544      -1.19117366       0.26930254 
Al      6.01481645       3.29567867       5.24705882       13      -1.71829932      -0.76904419      -0.38976928 
Al      5.90006973       5.24715796       3.49041062       13      -0.12925550      -1.52955197      -2.45864259 
Al      4.23538239       3.23759256       7.06938264       13      -1.91692420       1.09319563      -0.65094694 
Al      4.16184829       5.08898311       8.89526120       13      -1.28912150       0.85003004      -0.37739389 
Al      5.80484932       3.30745706       8.86008396       13       2.03049172      -1.30145702       0.47778028 
Al      5.95467398       5.11289497       7.08695371       13      -0.33058209       0.27607647      -0.90300845 
Al      4.26196746       7.06916335      -0.20822476       13      -1.72324007      -1.13981980      -0.57527071 
Al      4.07550202       8.87389034       1.64955562       13       0.48938490      -0.86942157      -1.59876866 
Al      5.95801401       7.09815357       1.49300564       13      -0.18011924      -0.90064910       1.68614028 
Al      5.83112906       8.91031910      -0.14763085       13       1.08610671      -0.82458546      -2.06209041 
Al      3.99967285       6.92110879       3.27094139       13       1.18019346       0.52123882      -0.30883532 
Al      4.15186989       8.71345104       5.28166515       13       0.15411431       0.83936992      -1.47694761 
Al      5.78640408       6.90112473       5.10516981       13       1.64547751       0.84753059       1.46805951 
Al      5.93005473       8.73105893       3.50358663       13      -0.01140570       0.37687881      -1.73620699 
Al      4.15200231       6.89043242       6.93580604       13       0.10626249      -0.67021276       1.43078632 
Al      4.12435750       8.73905929       8.73217920       13       0.10669636       0.34004880       0.67652919 
Al      5.98011898       6.95088342       8.77965770       13      -0.12500107       0.15605193       0.82851971 
Al      6.05146031       8.75354176       7.10853090       13      -2.00708443      -0.05515279      -1.21789178 
Al      7.93195489      -0.51225068      -0.22113182       13      -1.30542424       2.37291429      -0.15545865 
Al      7.65506888       1.27260093       1.63029972       13       1.79380478       2.59138079      -1.93765156 
Al      9.72875340      -0.30675257       1.64929647       13      -1.96623409      -0.82644922      -1.48765368 
Al      9.72322835       1.47079293      -0.25846023       13      -0.73087543      -0.96938121       0.50368859 
Al      7.65418229      -0.24491114       3.34012073       13       1.22407957      -2.13222417       1.58661584 
Al      7.90044028       1.43473354       5.26090493       13      -1.30470837       0.33263877      -0.70103116 
Al      9.53535173      -0.53746946       5.19320249       13       0.74017346       1.54120566       0.45312898 
Al      9.62579268       1.38470066       3.37680675       13      -0.84788674       1.07187242       1.45567667 
Al      7.61140803      -0.38301000       6.96102271       13       1.34798717       0.34176791      -0.21516803 
Al      7.76793213       1.36600955       8.65893872       13      -0.44311956       0.66347260       1.06991796 
Al      9.52974823      -0.35005192       8.78576110       13       1.06901083       0.37629841      -0.01526459 
Al      9.63650229       1.22008844       6.93282658       13      -0.14633104       1.87217939       0.33273759 
Al      7.82128126       3.03458651      -0.32730336       13      -1.06987890       0.90165252       0.73962000 
Al      7.66234367       5.19787873       1.60828767       13      -0.76624827      -1.30893785      -0.46088686 
Al      9.50737341       3.20582905       1.66167641       13      -0.71802392      -0.09698174      -0.40160524 
Al      9.34075112       5.08571123      -0.18694364       13       1.38126391      -0.36686941       0.09330289 
Al      7.48946270       3.12147000       3.38924451       13       1.87382350       0.90354766      -0.75854484 
Al      7.67667887       5.13348074       5.09356711       13       0.79027665       0.10591981       1.24477583 
Al      9.68156367       3.30674422       5.22806064       13      -1.85464447      -1.00323632      -0.63910990 
Al      9.34044956       5.09631812       3.34989546       13       1.69589767      -0.96327411       0.37227594 
Al      7.71513335       3.37863474       6.93803908       13       1.06186953      -1.04444788       0.79149440 
Al      7.72470406       5.00404882       8.85134665       13       0.31374347       0.52163926      -0.31207886 
Al      9.45827444       3.14502463       8.82043764       13       1.40465888       0.95526722      -0.75084345 
Al      9.62274233       5.18275664       6.92564352       13      -0.66956413      -0.07320856       1.16096625 
Al      7.64074717       7.03755554      -0.28091010       13       0.47287324       0.05958495      -0.09298285 
Al      7.93271142       8.78294813       1.61849189       13      -1.09425434       0.65096750      -0.12421425 
Al      9.51143114       6.96404475       1.59583157       13       1.11388279      -0.90948001      -1.39883344 
Al      9.54110663       8.78352323      -0.44580244       13       1.38970771      -1.28056733       1.92957390 
Al      7.80192685       7.00901243       3.31465805       13      -1.48003215       0.18208304       1.03026717 
Al      7.70132454       8.81419935       5.23154568       13      -0.59200583      -0.62269198      -0.96801925 
Al      9.48212493       7.03538711       5.12863083       13       0.78713312      -1.85672089       0.82249038 
Al      9.63769363       8.74444382       3.51589923       13      -0.75271604       0.02557392      -2.05485324 
Al      7.71665369       6.94544831       6.91529620       13       0.02779738      -1.01101523       0.72510434 
Al      7.83119783       8.91357919       8.77072184       13      -1.41818495      -2.09407169       0.69305065 
Al      9.43939378       6.84919597       8.96053456       13       0.37458947       0.22301662      -1.61729604 
Al      9.49599561       8.63173985       6.99564760       13       0.96411162       0.72473356      -0.05444906 
