
  ___ ___ ___ _ _ _  
 |   |   |_  | | | | 
 | | | | | . | | | | 
 |__ |  _|___|_____|  1.3.0
 |___|_|             

User:   edenborg@hebbe12-2
Date:   Thu Feb  1 15:12:55 2018
Arch:   x86_64
Pid:    20391
Python: 2.7.14
gpaw:   /apps/Hebbe/software/MPI/intel/2017.4.196-GCC-6.4.0-2.28/impi/2017.3.196/GPAW/1.3.0-Python-2.7.14/lib/python2.7/site-packages/gpaw
_gpaw:  /apps/Hebbe/software/MPI/intel/2017.4.196-GCC-6.4.0-2.28/impi/2017.3.196/GPAW/1.3.0-Python-2.7.14/bin/
       gpaw-python
ase:    /c3se/users/edenborg/Hebbe/ase/ase (version 3.15.1b1)
numpy:  /apps/Hebbe/software/MPI/intel/2017.4.196-GCC-6.4.0-2.28/impi/2017.3.196/Python/2.7.14/lib/python2.7/site-packages/numpy-1.13.1-py2.7-linux-x86_64.egg/numpy (version 1.13.1)
scipy:  /apps/Hebbe/software/MPI/intel/2017.4.196-GCC-6.4.0-2.28/impi/2017.3.196/Python/2.7.14/lib/python2.7/site-packages/scipy-0.19.1-py2.7-linux-x86_64.egg/scipy (version 0.19.1)
units:  Angstrom and eV
cores:  4

Input parameters:
  basis: dzp
  eigensolver: rmm-diis
  kpts: [10 10 10]
  mode: {ecut: 500.0,
         name: pw}
  xc: PBE

System changes: positions, numbers, cell, pbc, initial_charges, initial_magmoms 

Initialize ...

Al-setup:
  name: Aluminium
  id: 0292cae29f5d6237e50f6abdd43a7bdd
  Z: 13
  valence: 3
  core: 10
  charge: 0.0
  file: /c3se/apps/Glenn/gpaw/gpaw-setups-0.9.11271/Al.PBE.gz
  cutoffs: 1.08(comp), 1.91(filt), 2.36(core), lmax=2
  valence states:
                energy  radius
    3s(2.00)    -7.753   1.085
    3p(1.00)    -2.712   1.085
    *s          19.459   1.085
    *p          24.499   1.085
    *d           0.000   1.085

  LCAO basis set for Al:
    Name: dzp
    File: Al.dzp.basis
    Number of radial functions: 5
    Number of spherical harmonics: 13
      l=0, rc=7.7500 Bohr: 3s-sz confined orbital
      l=1, rc=10.2812 Bohr: 3p-sz confined orbital
      l=0, rc=4.5469 Bohr: 3s-dz split-valence wave
      l=1, rc=6.1562 Bohr: 3p-dz split-valence wave
      l=2, rc=10.2812 Bohr: d-type Gaussian polarization

Reference energy: -6603.423265

Spin-paired calculation

Occupation numbers:
  Fermi-Dirac: width=0.1000 eV

Convergence criteria:
  Maximum total energy change: 0.0005 eV / electron
  Maximum integral of absolute density change: 0.0001 electrons
  Maximum integral of absolute eigenstate change: 4e-08 eV^2
  Maximum number of iterations: 333

Symmetries present (total): 48

  ( 1  0  0)  ( 1  0  0)  ( 1  0  0)  ( 1  0  0)  ( 1  0 -1)  ( 1  0 -1)
  ( 1  0 -1)  ( 1 -1  0)  ( 0  1  0)  ( 0  0  1)  ( 1  0  0)  ( 1 -1  0)
  ( 1 -1  0)  ( 1  0 -1)  ( 0  0  1)  ( 0  1  0)  ( 1 -1  0)  ( 1  0  0)

  ( 1  0 -1)  ( 1  0 -1)  ( 1 -1  0)  ( 1 -1  0)  ( 1 -1  0)  ( 1 -1  0)
  ( 0  1 -1)  ( 0  0 -1)  ( 1  0  0)  ( 1  0 -1)  ( 0 -1  1)  ( 0 -1  0)
  ( 0  0 -1)  ( 0  1 -1)  ( 1  0 -1)  ( 1  0  0)  ( 0 -1  0)  ( 0 -1  1)

  ( 0  1  0)  ( 0  1  0)  ( 0  1  0)  ( 0  1  0)  ( 0  1 -1)  ( 0  1 -1)
  ( 1  0  0)  ( 0  1 -1)  ( 0  0  1)  (-1  1  0)  ( 1  0 -1)  ( 0  1  0)
  ( 0  0  1)  (-1  1  0)  ( 1  0  0)  ( 0  1 -1)  ( 0  0 -1)  (-1  1  0)

  ( 0  1 -1)  ( 0  1 -1)  ( 0  0  1)  ( 0  0  1)  ( 0  0  1)  ( 0  0  1)
  ( 0  0 -1)  (-1  1  0)  ( 1  0  0)  ( 0  1  0)  ( 0 -1  1)  (-1  0  1)
  ( 1  0 -1)  ( 0  1  0)  ( 0  1  0)  ( 1  0  0)  (-1  0  1)  ( 0 -1  1)

  ( 0  0 -1)  ( 0  0 -1)  ( 0  0 -1)  ( 0  0 -1)  ( 0 -1  1)  ( 0 -1  1)
  ( 1  0 -1)  ( 0  1 -1)  ( 0 -1  0)  (-1  0  0)  ( 1 -1  0)  ( 0  0  1)
  ( 0  1 -1)  ( 1  0 -1)  (-1  0  0)  ( 0 -1  0)  ( 0 -1  0)  (-1  0  1)

  ( 0 -1  1)  ( 0 -1  1)  ( 0 -1  0)  ( 0 -1  0)  ( 0 -1  0)  ( 0 -1  0)
  ( 0 -1  0)  (-1  0  1)  ( 1 -1  0)  ( 0  0 -1)  ( 0 -1  1)  (-1  0  0)
  ( 1 -1  0)  ( 0  0  1)  ( 0 -1  1)  (-1  0  0)  ( 1 -1  0)  ( 0  0 -1)

  (-1  1  0)  (-1  1  0)  (-1  1  0)  (-1  1  0)  (-1  0  1)  (-1  0  1)
  ( 0  1  0)  ( 0  1 -1)  (-1  0  1)  (-1  0  0)  ( 0  0  1)  ( 0 -1  1)
  ( 0  1 -1)  ( 0  1  0)  (-1  0  0)  (-1  0  1)  ( 0 -1  1)  ( 0  0  1)

  (-1  0  1)  (-1  0  1)  (-1  0  0)  (-1  0  0)  (-1  0  0)  (-1  0  0)
  (-1  1  0)  (-1  0  0)  ( 0  0 -1)  ( 0 -1  0)  (-1  1  0)  (-1  0  1)
  (-1  0  0)  (-1  1  0)  ( 0 -1  0)  ( 0  0 -1)  (-1  0  1)  (-1  1  0)
Note: your k-points are not as symmetric as your crystal!

1000 k-points: 10 x 10 x 10 Monkhorst-Pack grid
110 k-points in the irreducible part of the Brillouin zone
       k-points in crystal coordinates                weights
   0:     0.05000000    0.05000000   -0.05000000          6/1000
   1:     0.05000000    0.05000000    0.05000000          2/1000
   2:     0.15000000   -0.05000000   -0.05000000          6/1000
   3:     0.15000000    0.05000000   -0.15000000         12/1000
   4:     0.15000000    0.05000000   -0.05000000         12/1000
   5:     0.15000000    0.05000000    0.05000000          6/1000
   6:     0.15000000    0.15000000   -0.15000000          6/1000
   7:     0.15000000    0.15000000   -0.05000000          6/1000
   8:     0.15000000    0.15000000    0.05000000          6/1000
   9:     0.15000000    0.15000000    0.15000000          2/1000
          ...
 109:     0.45000000    0.45000000    0.45000000          2/1000

Wave functions: Plane wave expansion
  Cutoff energy: 500.000 eV
  Number of coefficients (min, max): 335, 356
  Using FFTW library
  Eigensolver: None  MatrixOperator buffer_size: default value or 
                              see value of nblock in input file
Diagonalizer layout: Serial LAPACKOrthonormalizer layout: Serial LAPACK 

RMM-DIIS eigensolver
       keep_htpsit: True
       Block size: 10
       DIIS iterations: 3
       Threshold for DIIS: 1.0e-16
       Limit lambda: False
       use_rayleigh: False
       trial_step: 0.1 

Densities:
  Coarse grid: 12*12*12 grid
  Fine grid: 24*24*24 grid
  Total Charge: 0.000000 

Density mixing:
  Method: separate
  Backend: pulay
  Linear mixing parameter: 0.05
  Mixing with 5 old densities
  Damping of long wave oscillations: 50 

Hamiltonian:
  XC and Coulomb potentials evaluated on a 24*24*24 grid
  Using the PBE Exchange-Correlation functional
 

Memory estimate:
  Process memory now: 73.85 MiB
  Calculator: 2.78 MiB
    Density: 0.71 MiB
      Arrays: 0.34 MiB
      Localized functions: 0.23 MiB
      Mixer: 0.13 MiB
    Hamiltonian: 0.23 MiB
      Arrays: 0.22 MiB
      XC: 0.00 MiB
      Poisson: 0.00 MiB
      vbar: 0.00 MiB
    Wavefunctions: 1.84 MiB
      Arrays psit_nG: 0.59 MiB
      Eigensolver: 0.05 MiB
      Projections: 0.02 MiB
      Projectors: 0.99 MiB
      Overlap op: 0.02 MiB
      PW-descriptor: 0.17 MiB

Total number of cores used: 4
Parallelization over k-points: 4

Number of atoms: 1
Number of atomic orbitals: 13
Number of bands in calculation: 4
Bands to converge: occupied states only
Number of valence electrons: 3

... initialized

Initializing position-dependent things.

Density initialized from atomic densities
Creating initial wave functions:
  4 bands from LCAO basis set

                
                
                
       Al       
                
                
                
                

Positions:
   0 Al     0.000000    0.000000    0.000000

Unit cell:
           periodic     x           y           z      points  spacing
  1. axis:    yes    0.000000    1.900000    1.900000    12     0.1828
  2. axis:    yes    1.900000    0.000000    1.900000    12     0.1828
  3. axis:    yes    1.900000    1.900000    0.000000    12     0.1828

  Lengths:   2.687006   2.687006   2.687006
  Angles:   60.000000  60.000000  60.000000

Effective grid spacing dv^(1/3) = 0.1995

                     log10-error:    total        iterations:
           time      wfs    density  energy       fermi  poisson
iter:   1  15:12:58  +1.43   +inf    -3.449959    3             
iter:   2  15:12:58  -3.01   +inf    -3.562798    4             
iter:   3  15:12:58  -5.52   +inf    -3.562859    2             
iter:   4  15:12:59  -4.15  -0.94    -3.564210    2             
iter:   5  15:12:59  -1.48  -0.97    -3.578178    3             
iter:   6  15:12:59  -3.85  -2.40    -3.580004    2             
iter:   7  15:12:59  -4.49  -2.39    -3.579971    2             
iter:   8  15:12:59  -3.84  -2.16    -3.579997    2             
iter:   9  15:13:00  -5.79  -3.61    -3.580002    2             
iter:  10  15:13:00  -6.87  -3.38    -3.580002    2             
iter:  11  15:13:00  -6.81  -3.85    -3.580002    2             
iter:  12  15:13:00  -7.00  -4.11    -3.580002    2             
iter:  13  15:13:00  -9.05  -5.05    -3.580002    1             

Converged after 13 iterations.

Dipole moment: (0.000000, -0.000000, 0.000000) |e|*Ang

Energy contributions relative to reference atoms: (reference = -6603.423265)

Kinetic:        +11.370990
Potential:       -7.547841
External:        +0.000000
XC:              -7.385764
Entropy (-ST):   -0.009637
Local:           -0.012568
--------------------------
Free energy:     -3.584820
Extrapolated:    -3.580002

Fermi level: 9.11816

Warning: Showing only first 2 kpts
 Kpt  Band  Eigenvalues  Occupancy
  0     0     -3.13920    0.01200
  0     1     20.11862    0.00000
  0     2     21.51829    0.00000

  1     0     -3.34380    0.00400
  1     1     21.53156    0.00000
  1     2     22.61129    0.00000


System changes: cell 

Initialize ...

Al-setup:
  name: Aluminium
  id: 0292cae29f5d6237e50f6abdd43a7bdd
  Z: 13
  valence: 3
  core: 10
  charge: 0.0
  file: /c3se/apps/Glenn/gpaw/gpaw-setups-0.9.11271/Al.PBE.gz
  cutoffs: 1.08(comp), 1.91(filt), 2.36(core), lmax=2
  valence states:
                energy  radius
    3s(2.00)    -7.753   1.085
    3p(1.00)    -2.712   1.085
    *s          19.459   1.085
    *p          24.499   1.085
    *d           0.000   1.085

  LCAO basis set for Al:
    Name: dzp
    File: Al.dzp.basis
    Number of radial functions: 5
    Number of spherical harmonics: 13
      l=0, rc=7.7500 Bohr: 3s-sz confined orbital
      l=1, rc=10.2812 Bohr: 3p-sz confined orbital
      l=0, rc=4.5469 Bohr: 3s-dz split-valence wave
      l=1, rc=6.1562 Bohr: 3p-dz split-valence wave
      l=2, rc=10.2812 Bohr: d-type Gaussian polarization

Reference energy: -6603.423265

Spin-paired calculation

Occupation numbers:
  Fermi-Dirac: width=0.1000 eV

Convergence criteria:
  Maximum total energy change: 0.0005 eV / electron
  Maximum integral of absolute density change: 0.0001 electrons
  Maximum integral of absolute eigenstate change: 4e-08 eV^2
  Maximum number of iterations: 333

Symmetries present (total): 48

  ( 1  0  0)  ( 1  0  0)  ( 1  0  0)  ( 1  0  0)  ( 1  0 -1)  ( 1  0 -1)
  ( 1  0 -1)  ( 1 -1  0)  ( 0  1  0)  ( 0  0  1)  ( 1  0  0)  ( 1 -1  0)
  ( 1 -1  0)  ( 1  0 -1)  ( 0  0  1)  ( 0  1  0)  ( 1 -1  0)  ( 1  0  0)

  ( 1  0 -1)  ( 1  0 -1)  ( 1 -1  0)  ( 1 -1  0)  ( 1 -1  0)  ( 1 -1  0)
  ( 0  1 -1)  ( 0  0 -1)  ( 1  0  0)  ( 1  0 -1)  ( 0 -1  1)  ( 0 -1  0)
  ( 0  0 -1)  ( 0  1 -1)  ( 1  0 -1)  ( 1  0  0)  ( 0 -1  0)  ( 0 -1  1)

  ( 0  1  0)  ( 0  1  0)  ( 0  1  0)  ( 0  1  0)  ( 0  1 -1)  ( 0  1 -1)
  ( 1  0  0)  ( 0  1 -1)  ( 0  0  1)  (-1  1  0)  ( 1  0 -1)  ( 0  1  0)
  ( 0  0  1)  (-1  1  0)  ( 1  0  0)  ( 0  1 -1)  ( 0  0 -1)  (-1  1  0)

  ( 0  1 -1)  ( 0  1 -1)  ( 0  0  1)  ( 0  0  1)  ( 0  0  1)  ( 0  0  1)
  ( 0  0 -1)  (-1  1  0)  ( 1  0  0)  ( 0  1  0)  ( 0 -1  1)  (-1  0  1)
  ( 1  0 -1)  ( 0  1  0)  ( 0  1  0)  ( 1  0  0)  (-1  0  1)  ( 0 -1  1)

  ( 0  0 -1)  ( 0  0 -1)  ( 0  0 -1)  ( 0  0 -1)  ( 0 -1  1)  ( 0 -1  1)
  ( 1  0 -1)  ( 0  1 -1)  ( 0 -1  0)  (-1  0  0)  ( 1 -1  0)  ( 0  0  1)
  ( 0  1 -1)  ( 1  0 -1)  (-1  0  0)  ( 0 -1  0)  ( 0 -1  0)  (-1  0  1)

  ( 0 -1  1)  ( 0 -1  1)  ( 0 -1  0)  ( 0 -1  0)  ( 0 -1  0)  ( 0 -1  0)
  ( 0 -1  0)  (-1  0  1)  ( 1 -1  0)  ( 0  0 -1)  ( 0 -1  1)  (-1  0  0)
  ( 1 -1  0)  ( 0  0  1)  ( 0 -1  1)  (-1  0  0)  ( 1 -1  0)  ( 0  0 -1)

  (-1  1  0)  (-1  1  0)  (-1  1  0)  (-1  1  0)  (-1  0  1)  (-1  0  1)
  ( 0  1  0)  ( 0  1 -1)  (-1  0  1)  (-1  0  0)  ( 0  0  1)  ( 0 -1  1)
  ( 0  1 -1)  ( 0  1  0)  (-1  0  0)  (-1  0  1)  ( 0 -1  1)  ( 0  0  1)

  (-1  0  1)  (-1  0  1)  (-1  0  0)  (-1  0  0)  (-1  0  0)  (-1  0  0)
  (-1  1  0)  (-1  0  0)  ( 0  0 -1)  ( 0 -1  0)  (-1  1  0)  (-1  0  1)
  (-1  0  0)  (-1  1  0)  ( 0 -1  0)  ( 0  0 -1)  (-1  0  1)  (-1  1  0)
Note: your k-points are not as symmetric as your crystal!

1000 k-points: 10 x 10 x 10 Monkhorst-Pack grid
110 k-points in the irreducible part of the Brillouin zone
       k-points in crystal coordinates                weights
   0:     0.05000000    0.05000000   -0.05000000          6/1000
   1:     0.05000000    0.05000000    0.05000000          2/1000
   2:     0.15000000   -0.05000000   -0.05000000          6/1000
   3:     0.15000000    0.05000000   -0.15000000         12/1000
   4:     0.15000000    0.05000000   -0.05000000         12/1000
   5:     0.15000000    0.05000000    0.05000000          6/1000
   6:     0.15000000    0.15000000   -0.15000000          6/1000
   7:     0.15000000    0.15000000   -0.05000000          6/1000
   8:     0.15000000    0.15000000    0.05000000          6/1000
   9:     0.15000000    0.15000000    0.15000000          2/1000
          ...
 109:     0.45000000    0.45000000    0.45000000          2/1000

Wave functions: Plane wave expansion
  Cutoff energy: 500.000 eV
  Number of coefficients (min, max): 357, 384
  Using FFTW library
  Eigensolver: None  MatrixOperator buffer_size: default value or 
                              see value of nblock in input file
Diagonalizer layout: Serial LAPACKOrthonormalizer layout: Serial LAPACK 

RMM-DIIS eigensolver
       keep_htpsit: True
       Block size: 10
       DIIS iterations: 3
       Threshold for DIIS: 1.0e-16
       Limit lambda: False
       use_rayleigh: False
       trial_step: 0.1 

Densities:
  Coarse grid: 12*12*12 grid
  Fine grid: 24*24*24 grid
  Total Charge: 0.000000 

Density mixing:
  Method: separate
  Backend: pulay
  Linear mixing parameter: 0.05
  Mixing with 5 old densities
  Damping of long wave oscillations: 50 

Hamiltonian:
  XC and Coulomb potentials evaluated on a 24*24*24 grid
  Using the PBE Exchange-Correlation functional
 

Memory estimate:
  Process memory now: 90.67 MiB
  Calculator: 2.91 MiB
    Density: 0.71 MiB
      Arrays: 0.34 MiB
      Localized functions: 0.23 MiB
      Mixer: 0.13 MiB
    Hamiltonian: 0.23 MiB
      Arrays: 0.22 MiB
      XC: 0.00 MiB
      Poisson: 0.00 MiB
      vbar: 0.00 MiB
    Wavefunctions: 1.98 MiB
      Arrays psit_nG: 0.63 MiB
      Eigensolver: 0.05 MiB
      Projections: 0.02 MiB
      Projectors: 1.07 MiB
      Overlap op: 0.02 MiB
      PW-descriptor: 0.18 MiB

Total number of cores used: 4
Parallelization over k-points: 4

Number of atoms: 1
Number of atomic orbitals: 13
Number of bands in calculation: 4
Bands to converge: occupied states only
Number of valence electrons: 3

... initialized

Initializing position-dependent things.

Density initialized from atomic densities
Creating initial wave functions:
  4 bands from LCAO basis set

                
                
                
       Al       
                
                
                
                

Positions:
   0 Al     0.000000    0.000000    0.000000

Unit cell:
           periodic     x           y           z      points  spacing
  1. axis:    yes    0.000000    1.950000    1.950000    12     0.1876
  2. axis:    yes    1.950000    0.000000    1.950000    12     0.1876
  3. axis:    yes    1.950000    1.950000    0.000000    12     0.1876

  Lengths:   2.757716   2.757716   2.757716
  Angles:   60.000000  60.000000  60.000000

Effective grid spacing dv^(1/3) = 0.2047

                     log10-error:    total        iterations:
           time      wfs    density  energy       fermi  poisson
iter:   1  15:13:03  +1.37   +inf    -3.582987    3             
iter:   2  15:13:03  -2.94   +inf    -3.681099    4             
iter:   3  15:13:03  -5.44   +inf    -3.681171    2             
iter:   4  15:13:03  -4.29  -0.93    -3.681848    2             
iter:   5  15:13:03  -1.63  -0.96    -3.689137    3             
iter:   6  15:13:04  -3.92  -2.43    -3.690373    2             
iter:   7  15:13:04  -5.53  -2.43    -3.690387    2             
iter:   8  15:13:04  -4.47  -2.48    -3.690402    2             
iter:   9  15:13:04  -6.00  -3.70    -3.690402    2             
iter:  10  15:13:04  -5.61  -3.49    -3.690403    2             
iter:  11  15:13:05  -6.38  -3.68    -3.690403    2             
iter:  12  15:13:05  -7.82  -4.39    -3.690403    2             

Converged after 12 iterations.

Dipole moment: (-0.000000, -0.000000, 0.000000) |e|*Ang

Energy contributions relative to reference atoms: (reference = -6603.423265)

Kinetic:         +7.726747
Potential:       -4.793063
External:        +0.000000
XC:              -6.609293
Entropy (-ST):   -0.010816
Local:           -0.009386
--------------------------
Free energy:     -3.695811
Extrapolated:    -3.690403

Fermi level: 8.29113

Warning: Showing only first 2 kpts
 Kpt  Band  Eigenvalues  Occupancy
  0     0     -3.40526    0.01200
  0     1     18.84258    0.00000
  0     2     20.12863    0.00000

  1     0     -3.59965    0.00400
  1     1     20.21018    0.00000
  1     2     21.27248    0.00000


System changes: cell 

Initialize ...

Al-setup:
  name: Aluminium
  id: 0292cae29f5d6237e50f6abdd43a7bdd
  Z: 13
  valence: 3
  core: 10
  charge: 0.0
  file: /c3se/apps/Glenn/gpaw/gpaw-setups-0.9.11271/Al.PBE.gz
  cutoffs: 1.08(comp), 1.91(filt), 2.36(core), lmax=2
  valence states:
                energy  radius
    3s(2.00)    -7.753   1.085
    3p(1.00)    -2.712   1.085
    *s          19.459   1.085
    *p          24.499   1.085
    *d           0.000   1.085

  LCAO basis set for Al:
    Name: dzp
    File: Al.dzp.basis
    Number of radial functions: 5
    Number of spherical harmonics: 13
      l=0, rc=7.7500 Bohr: 3s-sz confined orbital
      l=1, rc=10.2812 Bohr: 3p-sz confined orbital
      l=0, rc=4.5469 Bohr: 3s-dz split-valence wave
      l=1, rc=6.1562 Bohr: 3p-dz split-valence wave
      l=2, rc=10.2812 Bohr: d-type Gaussian polarization

Reference energy: -6603.423265

Spin-paired calculation

Occupation numbers:
  Fermi-Dirac: width=0.1000 eV

Convergence criteria:
  Maximum total energy change: 0.0005 eV / electron
  Maximum integral of absolute density change: 0.0001 electrons
  Maximum integral of absolute eigenstate change: 4e-08 eV^2
  Maximum number of iterations: 333

Symmetries present (total): 48

  ( 1  0  0)  ( 1  0  0)  ( 1  0  0)  ( 1  0  0)  ( 1  0 -1)  ( 1  0 -1)
  ( 1  0 -1)  ( 1 -1  0)  ( 0  1  0)  ( 0  0  1)  ( 1  0  0)  ( 1 -1  0)
  ( 1 -1  0)  ( 1  0 -1)  ( 0  0  1)  ( 0  1  0)  ( 1 -1  0)  ( 1  0  0)

  ( 1  0 -1)  ( 1  0 -1)  ( 1 -1  0)  ( 1 -1  0)  ( 1 -1  0)  ( 1 -1  0)
  ( 0  1 -1)  ( 0  0 -1)  ( 1  0  0)  ( 1  0 -1)  ( 0 -1  1)  ( 0 -1  0)
  ( 0  0 -1)  ( 0  1 -1)  ( 1  0 -1)  ( 1  0  0)  ( 0 -1  0)  ( 0 -1  1)

  ( 0  1  0)  ( 0  1  0)  ( 0  1  0)  ( 0  1  0)  ( 0  1 -1)  ( 0  1 -1)
  ( 1  0  0)  ( 0  1 -1)  ( 0  0  1)  (-1  1  0)  ( 1  0 -1)  ( 0  1  0)
  ( 0  0  1)  (-1  1  0)  ( 1  0  0)  ( 0  1 -1)  ( 0  0 -1)  (-1  1  0)

  ( 0  1 -1)  ( 0  1 -1)  ( 0  0  1)  ( 0  0  1)  ( 0  0  1)  ( 0  0  1)
  ( 0  0 -1)  (-1  1  0)  ( 1  0  0)  ( 0  1  0)  ( 0 -1  1)  (-1  0  1)
  ( 1  0 -1)  ( 0  1  0)  ( 0  1  0)  ( 1  0  0)  (-1  0  1)  ( 0 -1  1)

  ( 0  0 -1)  ( 0  0 -1)  ( 0  0 -1)  ( 0  0 -1)  ( 0 -1  1)  ( 0 -1  1)
  ( 1  0 -1)  ( 0  1 -1)  ( 0 -1  0)  (-1  0  0)  ( 1 -1  0)  ( 0  0  1)
  ( 0  1 -1)  ( 1  0 -1)  (-1  0  0)  ( 0 -1  0)  ( 0 -1  0)  (-1  0  1)

  ( 0 -1  1)  ( 0 -1  1)  ( 0 -1  0)  ( 0 -1  0)  ( 0 -1  0)  ( 0 -1  0)
  ( 0 -1  0)  (-1  0  1)  ( 1 -1  0)  ( 0  0 -1)  ( 0 -1  1)  (-1  0  0)
  ( 1 -1  0)  ( 0  0  1)  ( 0 -1  1)  (-1  0  0)  ( 1 -1  0)  ( 0  0 -1)

  (-1  1  0)  (-1  1  0)  (-1  1  0)  (-1  1  0)  (-1  0  1)  (-1  0  1)
  ( 0  1  0)  ( 0  1 -1)  (-1  0  1)  (-1  0  0)  ( 0  0  1)  ( 0 -1  1)
  ( 0  1 -1)  ( 0  1  0)  (-1  0  0)  (-1  0  1)  ( 0 -1  1)  ( 0  0  1)

  (-1  0  1)  (-1  0  1)  (-1  0  0)  (-1  0  0)  (-1  0  0)  (-1  0  0)
  (-1  1  0)  (-1  0  0)  ( 0  0 -1)  ( 0 -1  0)  (-1  1  0)  (-1  0  1)
  (-1  0  0)  (-1  1  0)  ( 0 -1  0)  ( 0  0 -1)  (-1  0  1)  (-1  1  0)
Note: your k-points are not as symmetric as your crystal!

1000 k-points: 10 x 10 x 10 Monkhorst-Pack grid
110 k-points in the irreducible part of the Brillouin zone
       k-points in crystal coordinates                weights
   0:     0.05000000    0.05000000   -0.05000000          6/1000
   1:     0.05000000    0.05000000    0.05000000          2/1000
   2:     0.15000000   -0.05000000   -0.05000000          6/1000
   3:     0.15000000    0.05000000   -0.15000000         12/1000
   4:     0.15000000    0.05000000   -0.05000000         12/1000
   5:     0.15000000    0.05000000    0.05000000          6/1000
   6:     0.15000000    0.15000000   -0.15000000          6/1000
   7:     0.15000000    0.15000000   -0.05000000          6/1000
   8:     0.15000000    0.15000000    0.05000000          6/1000
   9:     0.15000000    0.15000000    0.15000000          2/1000
          ...
 109:     0.45000000    0.45000000    0.45000000          2/1000

Wave functions: Plane wave expansion
  Cutoff energy: 500.000 eV
  Number of coefficients (min, max): 395, 414
  Using FFTW library
  Eigensolver: None  MatrixOperator buffer_size: default value or 
                              see value of nblock in input file
Diagonalizer layout: Serial LAPACKOrthonormalizer layout: Serial LAPACK 

RMM-DIIS eigensolver
       keep_htpsit: True
       Block size: 10
       DIIS iterations: 3
       Threshold for DIIS: 1.0e-16
       Limit lambda: False
       use_rayleigh: False
       trial_step: 0.1 

Densities:
  Coarse grid: 12*12*12 grid
  Fine grid: 24*24*24 grid
  Total Charge: 0.000000 

Density mixing:
  Method: separate
  Backend: pulay
  Linear mixing parameter: 0.05
  Mixing with 5 old densities
  Damping of long wave oscillations: 50 

Hamiltonian:
  XC and Coulomb potentials evaluated on a 24*24*24 grid
  Using the PBE Exchange-Correlation functional
 

Memory estimate:
  Process memory now: 92.37 MiB
  Calculator: 3.08 MiB
    Density: 0.71 MiB
      Arrays: 0.34 MiB
      Localized functions: 0.23 MiB
      Mixer: 0.13 MiB
    Hamiltonian: 0.23 MiB
      Arrays: 0.22 MiB
      XC: 0.00 MiB
      Poisson: 0.00 MiB
      vbar: 0.00 MiB
    Wavefunctions: 2.14 MiB
      Arrays psit_nG: 0.68 MiB
      Eigensolver: 0.06 MiB
      Projections: 0.02 MiB
      Projectors: 1.16 MiB
      Overlap op: 0.03 MiB
      PW-descriptor: 0.19 MiB

Total number of cores used: 4
Parallelization over k-points: 4

Number of atoms: 1
Number of atomic orbitals: 13
Number of bands in calculation: 4
Bands to converge: occupied states only
Number of valence electrons: 3

... initialized

Initializing position-dependent things.

Density initialized from atomic densities
Creating initial wave functions:
  4 bands from LCAO basis set

                
                
                
       Al       
                
                
                
                

Positions:
   0 Al     0.000000    0.000000    0.000000

Unit cell:
           periodic     x           y           z      points  spacing
  1. axis:    yes    0.000000    2.000000    2.000000    12     0.1925
  2. axis:    yes    2.000000    0.000000    2.000000    12     0.1925
  3. axis:    yes    2.000000    2.000000    0.000000    12     0.1925

  Lengths:   2.828427   2.828427   2.828427
  Angles:   60.000000  60.000000  60.000000

Effective grid spacing dv^(1/3) = 0.2100

                     log10-error:    total        iterations:
           time      wfs    density  energy       fermi  poisson
iter:   1  15:13:07  +1.30   +inf    -3.651062    3             
iter:   2  15:13:07  -2.92   +inf    -3.733894    4             
iter:   3  15:13:07  -5.39   +inf    -3.733969    2             
iter:   4  15:13:08  -4.36  -0.92    -3.734041    2             
iter:   5  15:13:08  -1.73  -0.95    -3.735227    3             
iter:   6  15:13:08  -3.98  -2.45    -3.736205    2             
iter:   7  15:13:08  -3.55  -2.47    -3.736154    2             
iter:   8  15:13:08  -4.01  -2.35    -3.736235    2             
iter:   9  15:13:09  -6.14  -3.71    -3.736239    2             
iter:  10  15:13:09  -6.02  -3.47    -3.736240    2             
iter:  11  15:13:09  -8.36  -4.46    -3.736240    2             

Converged after 11 iterations.

Dipole moment: (-0.000000, 0.000000, 0.000000) |e|*Ang

Energy contributions relative to reference atoms: (reference = -6603.423265)

Kinetic:         +4.723559
Potential:       -2.539989
External:        +0.000000
XC:              -5.906961
Entropy (-ST):   -0.012164
Local:           -0.006766
--------------------------
Free energy:     -3.742322
Extrapolated:    -3.736240

Fermi level: 7.51205

Warning: Showing only first 2 kpts
 Kpt  Band  Eigenvalues  Occupancy
  0     0     -3.64050    0.01200
  0     1     17.64598    0.00000
  0     2     18.82670    0.00000

  1     0     -3.82540    0.00400
  1     1     18.97015    0.00000
  1     2     20.01830    0.00000


System changes: cell 

Initialize ...

Al-setup:
  name: Aluminium
  id: 0292cae29f5d6237e50f6abdd43a7bdd
  Z: 13
  valence: 3
  core: 10
  charge: 0.0
  file: /c3se/apps/Glenn/gpaw/gpaw-setups-0.9.11271/Al.PBE.gz
  cutoffs: 1.08(comp), 1.91(filt), 2.36(core), lmax=2
  valence states:
                energy  radius
    3s(2.00)    -7.753   1.085
    3p(1.00)    -2.712   1.085
    *s          19.459   1.085
    *p          24.499   1.085
    *d           0.000   1.085

  LCAO basis set for Al:
    Name: dzp
    File: Al.dzp.basis
    Number of radial functions: 5
    Number of spherical harmonics: 13
      l=0, rc=7.7500 Bohr: 3s-sz confined orbital
      l=1, rc=10.2812 Bohr: 3p-sz confined orbital
      l=0, rc=4.5469 Bohr: 3s-dz split-valence wave
      l=1, rc=6.1562 Bohr: 3p-dz split-valence wave
      l=2, rc=10.2812 Bohr: d-type Gaussian polarization

Reference energy: -6603.423265

Spin-paired calculation

Occupation numbers:
  Fermi-Dirac: width=0.1000 eV

Convergence criteria:
  Maximum total energy change: 0.0005 eV / electron
  Maximum integral of absolute density change: 0.0001 electrons
  Maximum integral of absolute eigenstate change: 4e-08 eV^2
  Maximum number of iterations: 333

Symmetries present (total): 48

  ( 1  0  0)  ( 1  0  0)  ( 1  0  0)  ( 1  0  0)  ( 1  0 -1)  ( 1  0 -1)
  ( 1  0 -1)  ( 1 -1  0)  ( 0  1  0)  ( 0  0  1)  ( 1  0  0)  ( 1 -1  0)
  ( 1 -1  0)  ( 1  0 -1)  ( 0  0  1)  ( 0  1  0)  ( 1 -1  0)  ( 1  0  0)

  ( 1  0 -1)  ( 1  0 -1)  ( 1 -1  0)  ( 1 -1  0)  ( 1 -1  0)  ( 1 -1  0)
  ( 0  1 -1)  ( 0  0 -1)  ( 1  0  0)  ( 1  0 -1)  ( 0 -1  1)  ( 0 -1  0)
  ( 0  0 -1)  ( 0  1 -1)  ( 1  0 -1)  ( 1  0  0)  ( 0 -1  0)  ( 0 -1  1)

  ( 0  1  0)  ( 0  1  0)  ( 0  1  0)  ( 0  1  0)  ( 0  1 -1)  ( 0  1 -1)
  ( 1  0  0)  ( 0  1 -1)  ( 0  0  1)  (-1  1  0)  ( 1  0 -1)  ( 0  1  0)
  ( 0  0  1)  (-1  1  0)  ( 1  0  0)  ( 0  1 -1)  ( 0  0 -1)  (-1  1  0)

  ( 0  1 -1)  ( 0  1 -1)  ( 0  0  1)  ( 0  0  1)  ( 0  0  1)  ( 0  0  1)
  ( 0  0 -1)  (-1  1  0)  ( 1  0  0)  ( 0  1  0)  ( 0 -1  1)  (-1  0  1)
  ( 1  0 -1)  ( 0  1  0)  ( 0  1  0)  ( 1  0  0)  (-1  0  1)  ( 0 -1  1)

  ( 0  0 -1)  ( 0  0 -1)  ( 0  0 -1)  ( 0  0 -1)  ( 0 -1  1)  ( 0 -1  1)
  ( 1  0 -1)  ( 0  1 -1)  ( 0 -1  0)  (-1  0  0)  ( 1 -1  0)  ( 0  0  1)
  ( 0  1 -1)  ( 1  0 -1)  (-1  0  0)  ( 0 -1  0)  ( 0 -1  0)  (-1  0  1)

  ( 0 -1  1)  ( 0 -1  1)  ( 0 -1  0)  ( 0 -1  0)  ( 0 -1  0)  ( 0 -1  0)
  ( 0 -1  0)  (-1  0  1)  ( 1 -1  0)  ( 0  0 -1)  ( 0 -1  1)  (-1  0  0)
  ( 1 -1  0)  ( 0  0  1)  ( 0 -1  1)  (-1  0  0)  ( 1 -1  0)  ( 0  0 -1)

  (-1  1  0)  (-1  1  0)  (-1  1  0)  (-1  1  0)  (-1  0  1)  (-1  0  1)
  ( 0  1  0)  ( 0  1 -1)  (-1  0  1)  (-1  0  0)  ( 0  0  1)  ( 0 -1  1)
  ( 0  1 -1)  ( 0  1  0)  (-1  0  0)  (-1  0  1)  ( 0 -1  1)  ( 0  0  1)

  (-1  0  1)  (-1  0  1)  (-1  0  0)  (-1  0  0)  (-1  0  0)  (-1  0  0)
  (-1  1  0)  (-1  0  0)  ( 0  0 -1)  ( 0 -1  0)  (-1  1  0)  (-1  0  1)
  (-1  0  0)  (-1  1  0)  ( 0 -1  0)  ( 0  0 -1)  (-1  0  1)  (-1  1  0)
Note: your k-points are not as symmetric as your crystal!

1000 k-points: 10 x 10 x 10 Monkhorst-Pack grid
110 k-points in the irreducible part of the Brillouin zone
       k-points in crystal coordinates                weights
   0:     0.05000000    0.05000000   -0.05000000          6/1000
   1:     0.05000000    0.05000000    0.05000000          2/1000
   2:     0.15000000   -0.05000000   -0.05000000          6/1000
   3:     0.15000000    0.05000000   -0.15000000         12/1000
   4:     0.15000000    0.05000000   -0.05000000         12/1000
   5:     0.15000000    0.05000000    0.05000000          6/1000
   6:     0.15000000    0.15000000   -0.15000000          6/1000
   7:     0.15000000    0.15000000   -0.05000000          6/1000
   8:     0.15000000    0.15000000    0.05000000          6/1000
   9:     0.15000000    0.15000000    0.15000000          2/1000
          ...
 109:     0.45000000    0.45000000    0.45000000          2/1000

Wave functions: Plane wave expansion
  Cutoff energy: 500.000 eV
  Number of coefficients (min, max): 428, 450
  Using FFTW library
  Eigensolver: None  MatrixOperator buffer_size: default value or 
                              see value of nblock in input file
Diagonalizer layout: Serial LAPACKOrthonormalizer layout: Serial LAPACK 

RMM-DIIS eigensolver
       keep_htpsit: True
       Block size: 10
       DIIS iterations: 3
       Threshold for DIIS: 1.0e-16
       Limit lambda: False
       use_rayleigh: False
       trial_step: 0.1 

Densities:
  Coarse grid: 12*12*12 grid
  Fine grid: 24*24*24 grid
  Total Charge: 0.000000 

Density mixing:
  Method: separate
  Backend: pulay
  Linear mixing parameter: 0.05
  Mixing with 5 old densities
  Damping of long wave oscillations: 50 

Hamiltonian:
  XC and Coulomb potentials evaluated on a 24*24*24 grid
  Using the PBE Exchange-Correlation functional
 

Memory estimate:
  Process memory now: 94.02 MiB
  Calculator: 3.26 MiB
    Density: 0.71 MiB
      Arrays: 0.34 MiB
      Localized functions: 0.23 MiB
      Mixer: 0.13 MiB
    Hamiltonian: 0.23 MiB
      Arrays: 0.22 MiB
      XC: 0.00 MiB
      Poisson: 0.00 MiB
      vbar: 0.00 MiB
    Wavefunctions: 2.32 MiB
      Arrays psit_nG: 0.74 MiB
      Eigensolver: 0.06 MiB
      Projections: 0.02 MiB
      Projectors: 1.27 MiB
      Overlap op: 0.03 MiB
      PW-descriptor: 0.20 MiB

Total number of cores used: 4
Parallelization over k-points: 4

Number of atoms: 1
Number of atomic orbitals: 13
Number of bands in calculation: 4
Bands to converge: occupied states only
Number of valence electrons: 3

... initialized

Initializing position-dependent things.

Density initialized from atomic densities
Creating initial wave functions:
  4 bands from LCAO basis set

                
                
                
       Al       
                
                
                
                

Positions:
   0 Al     0.000000    0.000000    0.000000

Unit cell:
           periodic     x           y           z      points  spacing
  1. axis:    yes    0.000000    2.050000    2.050000    12     0.1973
  2. axis:    yes    2.050000    0.000000    2.050000    12     0.1973
  3. axis:    yes    2.050000    2.050000    0.000000    12     0.1973

  Lengths:   2.899138   2.899138   2.899138
  Angles:   60.000000  60.000000  60.000000

Effective grid spacing dv^(1/3) = 0.2152

                     log10-error:    total        iterations:
           time      wfs    density  energy       fermi  poisson
iter:   1  15:13:11  +1.22   +inf    -3.665278    3             
iter:   2  15:13:12  -2.93   +inf    -3.736192    3             
iter:   3  15:13:12  -5.33   +inf    -3.736266    2             
iter:   4  15:13:12  -4.38  -0.92    -3.735820    2             
iter:   5  15:13:13  -1.79  -0.94    -3.731770    3             
iter:   6  15:13:13  -4.08  -2.44    -3.732695    2             
iter:   7  15:13:13  -3.80  -2.49    -3.732697    2             
iter:   8  15:13:13  -4.44  -2.47    -3.732723    2             
iter:   9  15:13:13  -6.61  -3.65    -3.732725    2             
iter:  10  15:13:14  -6.32  -3.58    -3.732725    2             
iter:  11  15:13:14  -8.41  -4.47    -3.732725    1             

Converged after 11 iterations.

Dipole moment: (-0.000000, -0.000000, -0.000000) |e|*Ang

Energy contributions relative to reference atoms: (reference = -6603.423265)

Kinetic:         +2.296791
Potential:       -0.744311
External:        +0.000000
XC:              -5.273815
Entropy (-ST):   -0.013223
Local:           -0.004779
--------------------------
Free energy:     -3.739336
Extrapolated:    -3.732725

Fermi level: 6.78381

Warning: Showing only first 2 kpts
 Kpt  Band  Eigenvalues  Occupancy
  0     0     -3.84929    0.01200
  0     1     16.52008    0.00000
  0     2     17.60339    0.00000

  1     0     -4.02531    0.00400
  1     1     17.80019    0.00000
  1     2     18.83312    0.00000


System changes: cell 

Initialize ...

Al-setup:
  name: Aluminium
  id: 0292cae29f5d6237e50f6abdd43a7bdd
  Z: 13
  valence: 3
  core: 10
  charge: 0.0
  file: /c3se/apps/Glenn/gpaw/gpaw-setups-0.9.11271/Al.PBE.gz
  cutoffs: 1.08(comp), 1.91(filt), 2.36(core), lmax=2
  valence states:
                energy  radius
    3s(2.00)    -7.753   1.085
    3p(1.00)    -2.712   1.085
    *s          19.459   1.085
    *p          24.499   1.085
    *d           0.000   1.085

  LCAO basis set for Al:
    Name: dzp
    File: Al.dzp.basis
    Number of radial functions: 5
    Number of spherical harmonics: 13
      l=0, rc=7.7500 Bohr: 3s-sz confined orbital
      l=1, rc=10.2812 Bohr: 3p-sz confined orbital
      l=0, rc=4.5469 Bohr: 3s-dz split-valence wave
      l=1, rc=6.1562 Bohr: 3p-dz split-valence wave
      l=2, rc=10.2812 Bohr: d-type Gaussian polarization

Reference energy: -6603.423265

Spin-paired calculation

Occupation numbers:
  Fermi-Dirac: width=0.1000 eV

Convergence criteria:
  Maximum total energy change: 0.0005 eV / electron
  Maximum integral of absolute density change: 0.0001 electrons
  Maximum integral of absolute eigenstate change: 4e-08 eV^2
  Maximum number of iterations: 333

Symmetries present (total): 48

  ( 1  0  0)  ( 1  0  0)  ( 1  0  0)  ( 1  0  0)  ( 1  0 -1)  ( 1  0 -1)
  ( 1  0 -1)  ( 1 -1  0)  ( 0  1  0)  ( 0  0  1)  ( 1  0  0)  ( 1 -1  0)
  ( 1 -1  0)  ( 1  0 -1)  ( 0  0  1)  ( 0  1  0)  ( 1 -1  0)  ( 1  0  0)

  ( 1  0 -1)  ( 1  0 -1)  ( 1 -1  0)  ( 1 -1  0)  ( 1 -1  0)  ( 1 -1  0)
  ( 0  1 -1)  ( 0  0 -1)  ( 1  0  0)  ( 1  0 -1)  ( 0 -1  1)  ( 0 -1  0)
  ( 0  0 -1)  ( 0  1 -1)  ( 1  0 -1)  ( 1  0  0)  ( 0 -1  0)  ( 0 -1  1)

  ( 0  1  0)  ( 0  1  0)  ( 0  1  0)  ( 0  1  0)  ( 0  1 -1)  ( 0  1 -1)
  ( 1  0  0)  ( 0  1 -1)  ( 0  0  1)  (-1  1  0)  ( 1  0 -1)  ( 0  1  0)
  ( 0  0  1)  (-1  1  0)  ( 1  0  0)  ( 0  1 -1)  ( 0  0 -1)  (-1  1  0)

  ( 0  1 -1)  ( 0  1 -1)  ( 0  0  1)  ( 0  0  1)  ( 0  0  1)  ( 0  0  1)
  ( 0  0 -1)  (-1  1  0)  ( 1  0  0)  ( 0  1  0)  ( 0 -1  1)  (-1  0  1)
  ( 1  0 -1)  ( 0  1  0)  ( 0  1  0)  ( 1  0  0)  (-1  0  1)  ( 0 -1  1)

  ( 0  0 -1)  ( 0  0 -1)  ( 0  0 -1)  ( 0  0 -1)  ( 0 -1  1)  ( 0 -1  1)
  ( 1  0 -1)  ( 0  1 -1)  ( 0 -1  0)  (-1  0  0)  ( 1 -1  0)  ( 0  0  1)
  ( 0  1 -1)  ( 1  0 -1)  (-1  0  0)  ( 0 -1  0)  ( 0 -1  0)  (-1  0  1)

  ( 0 -1  1)  ( 0 -1  1)  ( 0 -1  0)  ( 0 -1  0)  ( 0 -1  0)  ( 0 -1  0)
  ( 0 -1  0)  (-1  0  1)  ( 1 -1  0)  ( 0  0 -1)  ( 0 -1  1)  (-1  0  0)
  ( 1 -1  0)  ( 0  0  1)  ( 0 -1  1)  (-1  0  0)  ( 1 -1  0)  ( 0  0 -1)

  (-1  1  0)  (-1  1  0)  (-1  1  0)  (-1  1  0)  (-1  0  1)  (-1  0  1)
  ( 0  1  0)  ( 0  1 -1)  (-1  0  1)  (-1  0  0)  ( 0  0  1)  ( 0 -1  1)
  ( 0  1 -1)  ( 0  1  0)  (-1  0  0)  (-1  0  1)  ( 0 -1  1)  ( 0  0  1)

  (-1  0  1)  (-1  0  1)  (-1  0  0)  (-1  0  0)  (-1  0  0)  (-1  0  0)
  (-1  1  0)  (-1  0  0)  ( 0  0 -1)  ( 0 -1  0)  (-1  1  0)  (-1  0  1)
  (-1  0  0)  (-1  1  0)  ( 0 -1  0)  ( 0  0 -1)  (-1  0  1)  (-1  1  0)
Note: your k-points are not as symmetric as your crystal!

1000 k-points: 10 x 10 x 10 Monkhorst-Pack grid
110 k-points in the irreducible part of the Brillouin zone
       k-points in crystal coordinates                weights
   0:     0.05000000    0.05000000   -0.05000000          6/1000
   1:     0.05000000    0.05000000    0.05000000          2/1000
   2:     0.15000000   -0.05000000   -0.05000000          6/1000
   3:     0.15000000    0.05000000   -0.15000000         12/1000
   4:     0.15000000    0.05000000   -0.05000000         12/1000
   5:     0.15000000    0.05000000    0.05000000          6/1000
   6:     0.15000000    0.15000000   -0.15000000          6/1000
   7:     0.15000000    0.15000000   -0.05000000          6/1000
   8:     0.15000000    0.15000000    0.05000000          6/1000
   9:     0.15000000    0.15000000    0.15000000          2/1000
          ...
 109:     0.45000000    0.45000000    0.45000000          2/1000

Wave functions: Plane wave expansion
  Cutoff energy: 500.000 eV
  Number of coefficients (min, max): 461, 489
  Using FFTW library
  Eigensolver: None  MatrixOperator buffer_size: default value or 
                              see value of nblock in input file
Diagonalizer layout: Serial LAPACKOrthonormalizer layout: Serial LAPACK 

RMM-DIIS eigensolver
       keep_htpsit: True
       Block size: 10
       DIIS iterations: 3
       Threshold for DIIS: 1.0e-16
       Limit lambda: False
       use_rayleigh: False
       trial_step: 0.1 

Densities:
  Coarse grid: 14*14*14 grid
  Fine grid: 28*28*28 grid
  Total Charge: 0.000000 

Density mixing:
  Method: separate
  Backend: pulay
  Linear mixing parameter: 0.05
  Mixing with 5 old densities
  Damping of long wave oscillations: 50 

Hamiltonian:
  XC and Coulomb potentials evaluated on a 28*28*28 grid
  Using the PBE Exchange-Correlation functional
 

Memory estimate:
  Process memory now: 96.01 MiB
  Calculator: 4.04 MiB
    Density: 1.13 MiB
      Arrays: 0.54 MiB
      Localized functions: 0.37 MiB
      Mixer: 0.21 MiB
    Hamiltonian: 0.36 MiB
      Arrays: 0.36 MiB
      XC: 0.00 MiB
      Poisson: 0.00 MiB
      vbar: 0.01 MiB
    Wavefunctions: 2.55 MiB
      Arrays psit_nG: 0.81 MiB
      Eigensolver: 0.07 MiB
      Projections: 0.02 MiB
      Projectors: 1.37 MiB
      Overlap op: 0.03 MiB
      PW-descriptor: 0.25 MiB

Total number of cores used: 4
Parallelization over k-points: 4

Number of atoms: 1
Number of atomic orbitals: 13
Number of bands in calculation: 4
Bands to converge: occupied states only
Number of valence electrons: 3

... initialized

Initializing position-dependent things.

Density initialized from atomic densities
Creating initial wave functions:
  4 bands from LCAO basis set

                
                
                
       Al       
                
                
                
                

Positions:
   0 Al     0.000000    0.000000    0.000000

Unit cell:
           periodic     x           y           z      points  spacing
  1. axis:    yes    0.000000    2.100000    2.100000    14     0.1732
  2. axis:    yes    2.100000    0.000000    2.100000    14     0.1732
  3. axis:    yes    2.100000    2.100000    0.000000    14     0.1732

  Lengths:   2.969848   2.969848   2.969848
  Angles:   60.000000  60.000000  60.000000

Effective grid spacing dv^(1/3) = 0.1890

                     log10-error:    total        iterations:
           time      wfs    density  energy       fermi  poisson
iter:   1  15:13:16  +1.15   +inf    -3.638159    3             
iter:   2  15:13:17  -2.94   +inf    -3.700391    3             
iter:   3  15:13:17  -5.28   +inf    -3.700464    2             
iter:   4  15:13:17  -4.35  -0.91    -3.699601    2             
iter:   5  15:13:17  -1.81  -0.93    -3.691341    3             
iter:   6  15:13:17  -4.36  -2.44    -3.692334    2             
iter:   7  15:13:18  -4.06  -2.50    -3.692345    2             
iter:   8  15:13:18  -5.01  -2.68    -3.692353    2             
iter:   9  15:13:18  -6.89  -3.68    -3.692353    2             
iter:  10  15:13:18  -6.67  -3.81    -3.692353    2             
iter:  11  15:13:18  -8.63  -4.66    -3.692353    1             

Converged after 11 iterations.

Dipole moment: (0.000000, 0.000000, 0.000000) |e|*Ang

Energy contributions relative to reference atoms: (reference = -6603.423265)

Kinetic:         +0.356978
Potential:       +0.664093
External:        +0.000000
XC:              -4.703216
Entropy (-ST):   -0.013699
Local:           -0.003358
--------------------------
Free energy:     -3.699203
Extrapolated:    -3.692353

Fermi level: 6.11111

Warning: Showing only first 2 kpts
 Kpt  Band  Eigenvalues  Occupancy
  0     0     -4.03532    0.01200
  0     1     15.45728    0.00000
  0     2     16.45092    0.00000

  1     0     -4.20305    0.00400
  1     1     16.68989    0.00000
  1     2     17.69839    0.00000


