
  ___ ___ ___ _ _ _  
 |   |   |_  | | | | 
 | | | | | . | | | | 
 |__ |  _|___|_____|  1.3.0
 |___|_|             

User:   fantm@hebbe04-2
Date:   Mon Feb  5 19:05:17 2018
Arch:   x86_64
Pid:    17097
Python: 2.7.14
gpaw:   /apps/Hebbe/software/MPI/intel/2017.4.196-GCC-6.4.0-2.28/impi/2017.3.196/GPAW/1.3.0-Python-2.7.14/lib/python2.7/site-packages/gpaw
_gpaw:  /apps/Hebbe/software/MPI/intel/2017.4.196-GCC-6.4.0-2.28/impi/2017.3.196/GPAW/1.3.0-Python-2.7.14/bin/
       gpaw-python
ase:    /apps/Hebbe/software/MPI/intel/2017.4.196-GCC-6.4.0-2.28/impi/2017.3.196/ASE/3.15.0-Python-2.7.14/lib/python2.7/site-packages/ase-3.15.0-py2.7.egg/ase (version 3.15.0)
numpy:  /apps/Hebbe/software/MPI/intel/2017.4.196-GCC-6.4.0-2.28/impi/2017.3.196/Python/2.7.14/lib/python2.7/site-packages/numpy-1.13.1-py2.7-linux-x86_64.egg/numpy (version 1.13.1)
scipy:  /apps/Hebbe/software/MPI/intel/2017.4.196-GCC-6.4.0-2.28/impi/2017.3.196/Python/2.7.14/lib/python2.7/site-packages/scipy-0.19.1-py2.7-linux-x86_64.egg/scipy (version 0.19.1)
units:  Angstrom and eV
cores:  12

Input parameters:
  basis: dzp
  eigensolver: rmm-diis
  kpts: [16 16  1]
  mode: {ecut: 650.0,
         name: pw}
  xc: PBE

System changes: positions, numbers, cell, pbc, initial_charges, initial_magmoms 

Initialize ...

Al-setup:
  name: Aluminium
  id: 0292cae29f5d6237e50f6abdd43a7bdd
  Z: 13
  valence: 3
  core: 10
  charge: 0.0
  file: /c3se/apps/Glenn/gpaw/gpaw-setups-0.9.11271/Al.PBE.gz
  cutoffs: 1.08(comp), 1.91(filt), 2.36(core), lmax=2
  valence states:
                energy  radius
    3s(2.00)    -7.753   1.085
    3p(1.00)    -2.712   1.085
    *s          19.459   1.085
    *p          24.499   1.085
    *d           0.000   1.085

  LCAO basis set for Al:
    Name: dzp
    File: /c3se/apps/Glenn/gpaw/gpaw-setups-0.9.11271/Al.dzp.basis.gz
    Number of radial functions: 5
    Number of spherical harmonics: 13
      l=0, rc=7.8750 Bohr: 3s-sz confined orbital
      l=1, rc=10.4219 Bohr: 3p-sz confined orbital
      l=0, rc=4.6094 Bohr: 3s-dz split-valence wave
      l=1, rc=6.2812 Bohr: 3p-dz split-valence wave
      l=2, rc=10.4219 Bohr: d-type Gaussian polarization

Reference energy: -99051.348973

Spin-paired calculation

Occupation numbers:
  Fermi-Dirac: width=0.1000 eV

Convergence criteria:
  Maximum total energy change: 0.0005 eV / electron
  Maximum integral of absolute density change: 0.0001 electrons
  Maximum integral of absolute eigenstate change: 4e-08 eV^2
  Maximum number of iterations: 333

Symmetries present (total): 6

  ( 1  0  0)  ( 1 -1  0)  ( 0  1  0)  ( 0 -1  0)  (-1  1  0)  (-1  0  0)
  ( 0  1  0)  ( 0 -1  0)  ( 1  0  0)  ( 1 -1  0)  (-1  0  0)  (-1  1  0)
  ( 0  0  1)  ( 0  0  1)  ( 0  0  1)  ( 0  0  1)  ( 0  0  1)  ( 0  0  1)
Note: your k-points are not as symmetric as your crystal!

256 k-points: 16 x 16 x 1 Monkhorst-Pack grid
72 k-points in the irreducible part of the Brillouin zone
       k-points in crystal coordinates                weights
   0:     0.03125000   -0.03125000    0.00000000          2/256
   1:     0.03125000    0.03125000    0.00000000          2/256
   2:     0.09375000   -0.09375000    0.00000000          2/256
   3:     0.09375000   -0.03125000    0.00000000          4/256
   4:     0.09375000    0.03125000    0.00000000          4/256
   5:     0.09375000    0.09375000    0.00000000          2/256
   6:     0.15625000   -0.15625000    0.00000000          2/256
   7:     0.15625000   -0.09375000    0.00000000          4/256
   8:     0.15625000   -0.03125000    0.00000000          4/256
   9:     0.15625000    0.03125000    0.00000000          4/256
          ...
  71:     0.46875000    0.46875000    0.00000000          2/256

Wave functions: Plane wave expansion
  Cutoff energy: 650.000 eV
  Number of coefficients (min, max): 12522, 12782
  Using FFTW library
  Eigensolver: None  MatrixOperator buffer_size: default value or 
                              see value of nblock in input file
Diagonalizer layout: Serial LAPACKOrthonormalizer layout: Serial LAPACK 

RMM-DIIS eigensolver
       keep_htpsit: True
       Block size: 10
       DIIS iterations: 3
       Threshold for DIIS: 1.0e-16
       Limit lambda: False
       use_rayleigh: False
       trial_step: 0.1 

Densities:
  Coarse grid: 15*15*280 grid
  Fine grid: 30*30*560 grid
  Total Charge: 0.000000 

Density mixing:
  Method: separate
  Backend: pulay
  Linear mixing parameter: 0.05
  Mixing with 5 old densities
  Damping of long wave oscillations: 50 

Hamiltonian:
  XC and Coulomb potentials evaluated on a 30*30*560 grid
  Using the PBE Exchange-Correlation functional
 

Memory estimate:
  Process memory now: 379.01 MiB
  Calculator: 142.20 MiB
    Density: 26.81 MiB
      Arrays: 12.50 MiB
      Localized functions: 9.51 MiB
      Mixer: 4.81 MiB
    Hamiltonian: 8.37 MiB
      Arrays: 8.17 MiB
      XC: 0.00 MiB
      Poisson: 0.00 MiB
      vbar: 0.20 MiB
    Wavefunctions: 107.02 MiB
      Arrays psit_nG: 70.21 MiB
      Eigensolver: 12.68 MiB
      Projections: 1.07 MiB
      Projectors: 8.04 MiB
      Overlap op: 11.76 MiB
      PW-descriptor: 3.26 MiB

Total number of cores used: 12
Parallelization over k-points: 12

Number of atoms: 15
Number of atomic orbitals: 195
Number of bands in calculation: 60
Bands to converge: occupied states only
Number of valence electrons: 45

... initialized

Initializing position-dependent things.

Density initialized from atomic densities
Creating initial wave functions:
  60 bands from LCAO basis set

                    
                    
                    
                    
       Al           
                    
        Al          
                    
                    
                    
           Al       
                    
                    
       Al           
                    
        Al          
                    
                    
           Al       
                    
                    
                    
       Al           
                    
        Al          
                    
                    
           Al       
                    
                    
       Al           
                    
        Al          
                    
                    
           Al       
                    
                    
                    
       Al           
                    
        Al          
                    
                    
           Al       
                    
                    
                    
                    

Positions:
   0 Al     1.428356    0.824662    7.500000
   1 Al     0.000000    1.649323    9.832495
   2 Al     0.000000    0.000000   12.164990
   3 Al     1.428356    0.824662   14.497485
   4 Al     0.000000    1.649323   16.829980
   5 Al     0.000000    0.000000   19.162475
   6 Al     1.428356    0.824662   21.494971
   7 Al     0.000000    1.649323   23.827466
   8 Al     0.000000    0.000000   26.159961
   9 Al     1.428356    0.824662   28.492456
  10 Al     0.000000    1.649323   30.824951
  11 Al     0.000000    0.000000   33.157446
  12 Al     1.428356    0.824662   35.489941
  13 Al     0.000000    1.649323   37.822436
  14 Al     0.000000    0.000000   40.154931

Unit cell:
           periodic     x           y           z      points  spacing
  1. axis:    yes    2.856711    0.000000    0.000000    15     0.1649
  2. axis:    yes    1.428356    2.473985    0.000000    15     0.1649
  3. axis:    no     0.000000    0.000000   47.654931   280     0.1702

  Lengths:   2.856711   2.856711  47.654931
  Angles:   90.000000  90.000000  60.000000

Effective grid spacing dv^(1/3) = 0.1749

                     log10-error:    total        iterations:
           time      wfs    density  energy       fermi  poisson
iter:   1  19:05:54  +1.29   +inf   -54.297081    3             
iter:   2  19:06:06  -2.28   +inf   -55.521762    3             
iter:   3  19:06:18  -3.41   +inf   -55.527431    2             
iter:   4  19:06:31  -3.32  -0.90   -56.476991    34            
iter:   5  19:06:45  -3.43  -0.89   -56.674831    33            
iter:   6  19:06:58  -3.09  -0.87   -55.659556    3             
iter:   7  19:07:12  -2.30  -0.98   -55.462614    3             
iter:   8  19:07:25  -2.60  -1.25   -55.494116    3             
iter:   9  19:07:39  -3.26  -1.51   -55.377502    3             
iter:  10  19:07:52  -3.64  -1.81   -55.365782    3             
iter:  11  19:08:06  -4.04  -1.91   -55.413777    3             
iter:  12  19:08:20  -4.14  -1.71   -55.338260    3             
iter:  13  19:08:33  -4.94  -2.18   -55.337633    3             
iter:  14  19:08:47  -5.12  -2.24   -55.412860    2             
iter:  15  19:09:00  -5.08  -1.68   -55.334362    2             
iter:  16  19:09:14  -4.92  -2.41   -55.333534    3             
iter:  17  19:09:27  -5.27  -2.52   -55.336120    3             
iter:  18  19:09:41  -5.59  -2.37   -55.333343    3             
iter:  19  19:09:55  -5.97  -2.67   -55.333594    2             
iter:  20  19:10:08  -5.66  -2.67   -55.349670    2             
iter:  21  19:10:22  -6.06  -2.02   -55.333559    2             
iter:  22  19:10:35  -5.86  -2.73   -55.333194    2             
iter:  23  19:10:49  -6.26  -2.90   -55.333423    2             
iter:  24  19:11:02  -6.19  -2.84   -55.333143    2             
iter:  25  19:11:16  -6.18  -2.97   -55.333178    2             
iter:  26  19:11:29  -6.56  -3.09   -55.334398    2             
iter:  27  19:11:43  -7.05  -2.57   -55.333151    2             
iter:  28  19:11:56  -6.74  -3.09   -55.333087    2             
iter:  29  19:12:10  -6.95  -3.30   -55.333113    2             
iter:  30  19:12:24  -7.43  -3.12   -55.333240    2             
iter:  31  19:12:37  -6.76  -3.08   -55.333047    2             
iter:  32  19:12:51  -7.18  -3.51   -55.333119    2             
iter:  33  19:13:05  -7.63  -3.24   -55.333141    2             
iter:  34  19:13:18  -7.89  -3.14   -55.333046    2             
iter:  35  19:13:32  -7.78  -3.53   -55.333058    2             
iter:  36  19:13:45  -7.58  -3.61   -55.333047    2             
iter:  37  19:13:59  -8.11  -3.34   -55.333053    2             
iter:  38  19:14:13  -7.95  -3.72   -55.333048    2             
iter:  39  19:14:26  -8.53  -3.60   -55.333076    2             
iter:  40  19:14:40  -8.31  -3.35   -55.333045    2             
iter:  41  19:14:53  -8.75  -3.80   -55.333036    2             
iter:  42  19:15:07  -8.93  -3.80   -55.333058    2             
iter:  43  19:15:21  -8.73  -3.71   -55.333035    2             
iter:  44  19:15:34  -9.01  -3.95   -55.333042    2             
iter:  45  19:15:48  -9.03  -3.88   -55.333052    2             
iter:  46  19:16:01  -8.72  -3.55   -55.333037    2             
iter:  47  19:16:15  -9.27  -4.01   -55.333044    2             

Converged after 47 iterations.

Dipole moment: (-0.044328, -0.025593, 0.000092) |e|*Ang

Energy contributions relative to reference atoms: (reference = -99051.348973)

Kinetic:        +52.626310
Potential:      -25.314768
External:        +0.000000
XC:             -82.438707
Entropy (-ST):   -0.205240
Local:           -0.103259
--------------------------
Free energy:    -55.435664
Extrapolated:   -55.333044

Fermi level: 4.20394

Warning: Showing only first 2 kpts
 Kpt  Band  Eigenvalues  Occupancy
  0    20      4.74707    0.00007
  0    21      5.72192    0.00000
  0    22      6.65521    0.00000
  0    23      7.48294    0.00000

  1    20      4.70439    0.00010
  1    21      5.67982    0.00000
  1    22      6.61339    0.00000
  1    23      7.44065    0.00000


Timing:                              incl.     excl.
-----------------------------------------------------------
Hamiltonian:                         0.522     0.001   0.0% |
 Atomic:                             0.104     0.057   0.0% |
  XC Correction:                     0.047     0.047   0.0% |
 Calculate atomic Hamiltonians:      0.115     0.115   0.0% |
 Communicate:                        0.000     0.000   0.0% |
 Initialize Hamiltonian:             0.000     0.000   0.0% |
 Poisson:                            0.002     0.002   0.0% |
 XC 3D grid:                         0.299     0.299   0.0% |
LCAO initialization:                21.002     0.073   0.0% |
 LCAO eigensolver:                  12.191     0.001   0.0% |
  Calculate projections:             0.005     0.005   0.0% |
  DenseAtomicCorrection:             0.015     0.015   0.0% |
  Distribute overlap matrix:         0.002     0.002   0.0% |
  Orbital Layouts:                   0.083     0.083   0.0% |
  Potential matrix:                 12.010    12.010   1.8% ||
  Sum over cells:                    0.075     0.075   0.0% |
 LCAO to grid:                       4.579     4.579   0.7% |
 Set positions (LCAO WFS):           4.159     0.002   0.0% |
  Basic WFS set positions:           0.002     0.002   0.0% |
  Basis functions set positions:     0.000     0.000   0.0% |
  TCI: Calculate S, T, P:            4.155     4.155   0.6% |
PWDescriptor:                        0.016     0.016   0.0% |
SCF-cycle:                         634.913    56.007   8.5% |--|
 Density:                           53.282     0.001   0.0% |
  Atomic density matrices:           0.222     0.222   0.0% |
  Mix:                              15.719    15.719   2.4% ||
  Multipole moments:                 0.017     0.017   0.0% |
  Pseudo density:                   37.322    36.371   5.5% |-|
   Symmetrize density:               0.951     0.951   0.1% |
 Hamiltonian:                       21.835     0.059   0.0% |
  Atomic:                            4.507     2.433   0.4% |
   XC Correction:                    2.074     2.074   0.3% |
  Calculate atomic Hamiltonians:     5.026     5.026   0.8% |
  Communicate:                       0.009     0.009   0.0% |
  Poisson:                           0.072     0.072   0.0% |
  XC 3D grid:                       12.162    12.162   1.8% ||
 Orthonormalize:                    24.282     0.014   0.0% |
  Band Layouts:                      0.035     0.002   0.0% |
   Inverse Cholesky:                 0.033     0.033   0.0% |
  calc_s_matrix:                     2.158     2.158   0.3% |
  projections:                      18.977    18.977   2.9% ||
  rotate_psi:                        3.098     3.098   0.5% |
 RMM-DIIS:                         430.824    40.056   6.1% |-|
  Calculate residuals:              89.250    89.250  13.6% |----|
  DIIS step:                       200.254     2.779   0.4% |
   Calculate residuals:            176.898   176.898  26.9% |----------|
   Construct matrix:                 2.666     2.666   0.4% |
   Linear solve:                     0.470     0.470   0.1% |
   Update trial vectors:             3.480     3.480   0.5% |
   precondition:                    13.960    13.960   2.1% ||
  Find lambda:                       1.904     1.904   0.3% |
  Update psi:                        1.364     1.364   0.2% |
  precondition:                     29.245    29.245   4.4% |-|
  projections:                      68.752    68.752  10.4% |---|
 Subspace diag:                     48.684     0.023   0.0% |
  Band Layouts:                      0.202     0.005   0.0% |
   Diagonalize:                      0.193     0.193   0.0% |
   Distribute results:               0.004     0.004   0.0% |
  calc_h_matrix:                    41.512    41.512   6.3% |--|
  rotate_psi:                        6.947     6.947   1.1% |
Set symmetry:                        0.126     0.126   0.0% |
Other:                               1.511     1.511   0.2% |
-----------------------------------------------------------
Total:                                       658.090 100.0%

Memory usage: 434.54 MiB
Date: Mon Feb  5 19:16:15 2018
