
  ___ ___ ___ _ _ _  
 |   |   |_  | | | | 
 | | | | | . | | | | 
 |__ |  _|___|_____|  1.3.0
 |___|_|             

User:   edenborg@hebbe14-7
Date:   Tue Feb  6 11:51:46 2018
Arch:   x86_64
Pid:    4521
Python: 2.7.14
gpaw:   /apps/Hebbe/software/MPI/intel/2017.4.196-GCC-6.4.0-2.28/impi/2017.3.196/GPAW/1.3.0-Python-2.7.14/lib/python2.7/site-packages/gpaw
_gpaw:  /apps/Hebbe/software/MPI/intel/2017.4.196-GCC-6.4.0-2.28/impi/2017.3.196/GPAW/1.3.0-Python-2.7.14/bin/
       gpaw-python
ase:    /c3se/users/edenborg/Hebbe/ase/ase (version 3.15.1b1)
numpy:  /apps/Hebbe/software/MPI/intel/2017.4.196-GCC-6.4.0-2.28/impi/2017.3.196/Python/2.7.14/lib/python2.7/site-packages/numpy-1.13.1-py2.7-linux-x86_64.egg/numpy (version 1.13.1)
scipy:  /apps/Hebbe/software/MPI/intel/2017.4.196-GCC-6.4.0-2.28/impi/2017.3.196/Python/2.7.14/lib/python2.7/site-packages/scipy-0.19.1-py2.7-linux-x86_64.egg/scipy (version 0.19.1)
units:  Angstrom and eV
cores:  12

Input parameters:
  basis: dzp
  eigensolver: rmm-diis
  kpts: [16 16  1]
  mode: {ecut: 650.0,
         name: pw}
  xc: PBE

System changes: positions, numbers, cell, pbc, initial_charges, initial_magmoms 

Initialize ...

Al-setup:
  name: Aluminium
  id: 0292cae29f5d6237e50f6abdd43a7bdd
  Z: 13
  valence: 3
  core: 10
  charge: 0.0
  file: /c3se/apps/Glenn/gpaw/gpaw-setups-0.9.11271/Al.PBE.gz
  cutoffs: 1.08(comp), 1.91(filt), 2.36(core), lmax=2
  valence states:
                energy  radius
    3s(2.00)    -7.753   1.085
    3p(1.00)    -2.712   1.085
    *s          19.459   1.085
    *p          24.499   1.085
    *d           0.000   1.085

  LCAO basis set for Al:
    Name: dzp
    File: /c3se/apps/Glenn/gpaw/gpaw-setups-0.9.11271/Al.dzp.basis.gz
    Number of radial functions: 5
    Number of spherical harmonics: 13
      l=0, rc=7.8750 Bohr: 3s-sz confined orbital
      l=1, rc=10.4219 Bohr: 3p-sz confined orbital
      l=0, rc=4.6094 Bohr: 3s-dz split-valence wave
      l=1, rc=6.2812 Bohr: 3p-dz split-valence wave
      l=2, rc=10.4219 Bohr: d-type Gaussian polarization

Reference energy: -112258.195503

Spin-paired calculation

Occupation numbers:
  Fermi-Dirac: width=0.1000 eV

Convergence criteria:
  Maximum total energy change: 0.0005 eV / electron
  Maximum integral of absolute density change: 0.0001 electrons
  Maximum integral of absolute eigenstate change: 4e-08 eV^2
  Maximum number of iterations: 333

Symmetries present (total): 6

  ( 1  0  0)  ( 1 -1  0)  ( 0  1  0)  ( 0 -1  0)  (-1  1  0)  (-1  0  0)
  ( 0  1  0)  ( 0 -1  0)  ( 1  0  0)  ( 1 -1  0)  (-1  0  0)  (-1  1  0)
  ( 0  0  1)  ( 0  0  1)  ( 0  0  1)  ( 0  0  1)  ( 0  0  1)  ( 0  0  1)
Note: your k-points are not as symmetric as your crystal!

256 k-points: 16 x 16 x 1 Monkhorst-Pack grid
72 k-points in the irreducible part of the Brillouin zone
       k-points in crystal coordinates                weights
   0:     0.03125000   -0.03125000    0.00000000          2/256
   1:     0.03125000    0.03125000    0.00000000          2/256
   2:     0.09375000   -0.09375000    0.00000000          2/256
   3:     0.09375000   -0.03125000    0.00000000          4/256
   4:     0.09375000    0.03125000    0.00000000          4/256
   5:     0.09375000    0.09375000    0.00000000          2/256
   6:     0.15625000   -0.15625000    0.00000000          2/256
   7:     0.15625000   -0.09375000    0.00000000          4/256
   8:     0.15625000   -0.03125000    0.00000000          4/256
   9:     0.15625000    0.03125000    0.00000000          4/256
          ...
  71:     0.46875000    0.46875000    0.00000000          2/256

Wave functions: Plane wave expansion
  Cutoff energy: 650.000 eV
  Number of coefficients (min, max): 13774, 14068
  Using FFTW library
  Eigensolver: None  MatrixOperator buffer_size: default value or 
                              see value of nblock in input file
Diagonalizer layout: Serial LAPACKOrthonormalizer layout: Serial LAPACK 

RMM-DIIS eigensolver
       keep_htpsit: True
       Block size: 10
       DIIS iterations: 3
       Threshold for DIIS: 1.0e-16
       Limit lambda: False
       use_rayleigh: False
       trial_step: 0.1 

Densities:
  Coarse grid: 15*15*315 grid
  Fine grid: 30*30*630 grid
  Total Charge: 0.000000 

Density mixing:
  Method: separate
  Backend: pulay
  Linear mixing parameter: 0.05
  Mixing with 5 old densities
  Damping of long wave oscillations: 50 

Hamiltonian:
  XC and Coulomb potentials evaluated on a 30*30*630 grid
  Using the PBE Exchange-Correlation functional
 

Memory estimate:
  Process memory now: 445.05 MiB
  Calculator: 171.10 MiB
    Density: 29.90 MiB
      Arrays: 14.06 MiB
      Localized functions: 10.43 MiB
      Mixer: 5.41 MiB
    Hamiltonian: 9.41 MiB
      Arrays: 9.19 MiB
      XC: 0.00 MiB
      Poisson: 0.00 MiB
      vbar: 0.21 MiB
    Wavefunctions: 131.79 MiB
      Arrays psit_nG: 87.58 MiB
      Eigensolver: 15.67 MiB
      Projections: 1.38 MiB
      Projectors: 8.84 MiB
      Overlap op: 14.67 MiB
      PW-descriptor: 3.65 MiB

Total number of cores used: 12
Parallelization over k-points: 12

Number of atoms: 17
Number of atomic orbitals: 221
Number of bands in calculation: 68
Bands to converge: occupied states only
Number of valence electrons: 51

... initialized

Initializing position-dependent things.

Density initialized from atomic densities
Creating initial wave functions:
  68 bands from LCAO basis set

                    
                    
                    
                    
       Al           
                    
        Al          
                    
                    
                    
           Al       
                    
                    
       Al           
                    
        Al          
                    
                    
           Al       
                    
                    
                    
       Al           
                    
        Al          
                    
                    
           Al       
                    
                    
       Al           
                    
        Al          
                    
                    
                    
           Al       
                    
                    
       Al           
                    
        Al          
                    
                    
           Al       
                    
                    
                    
       Al           
                    
        Al          
                    
                    
                    
                    

Positions:
   0 Al     0.000000    1.650956    7.500000
   1 Al     0.000000    0.000000    9.834804
   2 Al     1.429770    0.825478   12.169609
   3 Al     0.000000    1.650956   14.504413
   4 Al     0.000000    0.000000   16.839218
   5 Al     1.429770    0.825478   19.174022
   6 Al     0.000000    1.650956   21.508827
   7 Al     0.000000    0.000000   23.843631
   8 Al     1.429770    0.825478   26.178436
   9 Al     0.000000    1.650956   28.513240
  10 Al     0.000000    0.000000   30.848045
  11 Al     1.429770    0.825478   33.182849
  12 Al     0.000000    1.650956   35.517654
  13 Al     0.000000    0.000000   37.852458
  14 Al     1.429770    0.825478   40.187263
  15 Al     0.000000    1.650956   42.522067
  16 Al     0.000000    0.000000   44.856872

Unit cell:
           periodic     x           y           z      points  spacing
  1. axis:    yes    2.859540    0.000000    0.000000    15     0.1651
  2. axis:    yes    1.429770    2.476434    0.000000    15     0.1651
  3. axis:    no     0.000000    0.000000   52.356872   315     0.1662

  Lengths:   2.859540   2.859540  52.356872
  Angles:   90.000000  90.000000  60.000000

Effective grid spacing dv^(1/3) = 0.1736

                     log10-error:    total        iterations:
           time      wfs    density  energy       fermi  poisson
iter:   1  11:52:33  +1.29   +inf   -61.618278    2             
iter:   2  11:52:49  -2.30   +inf   -62.996443    3             
iter:   3  11:53:06  -3.43   +inf   -63.002542    2             
iter:   4  11:53:24  -3.34  -0.90   -64.530337    34            
iter:   5  11:53:43  -3.40  -0.87   -65.101817    33            
iter:   6  11:54:01  -3.19  -0.83   -63.517958    3             
iter:   7  11:54:20  -2.42  -0.95   -62.949558    3             
iter:   8  11:54:38  -2.53  -1.20   -63.000306    3             
iter:   9  11:54:57  -3.07  -1.47   -62.877988    3             
iter:  10  11:55:15  -3.74  -1.75   -62.831038    3             
iter:  11  11:55:34  -3.72  -1.96   -62.809369    2             
iter:  12  11:55:52  -4.88  -2.21   -62.886297    3             
iter:  13  11:56:11  -4.51  -1.72   -62.892835    2             
iter:  14  11:56:29  -5.28  -1.68   -62.812063    2             
iter:  15  11:56:48  -4.67  -2.19   -62.804623    3             
iter:  16  11:57:06  -5.56  -2.55   -62.805100    2             
iter:  17  11:57:25  -6.01  -2.53   -62.804728    2             
iter:  18  11:57:43  -5.64  -2.60   -62.811794    3             
iter:  19  11:58:02  -5.86  -2.21   -62.809098    2             
iter:  20  11:58:20  -6.36  -2.30   -62.806557    2             
iter:  21  11:58:39  -6.43  -2.45   -62.804604    2             
iter:  22  11:58:57  -6.44  -2.70   -62.804538    2             
iter:  23  11:59:15  -6.54  -2.77   -62.804697    2             
iter:  24  11:59:34  -6.01  -2.72   -62.806804    2             
iter:  25  11:59:52  -6.19  -2.46   -62.808614    2             
iter:  26  12:00:11  -6.53  -2.33   -62.806097    2             
iter:  27  12:00:29  -6.35  -2.49   -62.804429    2             
iter:  28  12:00:47  -6.99  -2.87   -62.804318    2             
iter:  29  12:01:06  -6.96  -2.93   -62.804465    2             
iter:  30  12:01:24  -7.07  -2.86   -62.804765    2             
iter:  31  12:01:43  -6.92  -2.72   -62.806244    2             
iter:  32  12:02:01  -6.96  -2.50   -62.805329    2             
iter:  33  12:02:20  -6.96  -2.64   -62.804345    2             
iter:  34  12:02:38  -7.46  -3.00   -62.804358    2             
iter:  35  12:02:57  -6.87  -3.01   -62.804444    2             
iter:  36  12:03:15  -7.21  -2.95   -62.804883    2             
iter:  37  12:03:34  -7.01  -2.77   -62.806060    2             
iter:  38  12:03:52  -6.65  -2.52   -62.806318    2             
iter:  39  12:04:11  -6.70  -2.50   -62.804289    2             
iter:  40  12:04:29  -7.71  -3.15   -62.804277    2             
iter:  41  12:04:48  -7.57  -3.16   -62.804301    2             
iter:  42  12:05:06  -7.69  -3.16   -62.804318    2             
iter:  43  12:05:24  -7.33  -3.06   -62.804952    2             
iter:  44  12:05:43  -7.11  -2.75   -62.805757    2             
iter:  45  12:06:01  -7.22  -2.60   -62.804268    2             
iter:  46  12:06:20  -7.80  -3.27   -62.804293    2             
iter:  47  12:06:38  -7.65  -3.23   -62.804286    2             
iter:  48  12:06:57  -7.84  -3.26   -62.804382    2             
iter:  49  12:07:15  -7.92  -3.12   -62.804409    2             
iter:  50  12:07:33  -7.61  -3.02   -62.804639    2             
iter:  51  12:07:52  -7.69  -2.84   -62.804289    2             
iter:  52  12:08:10  -8.02  -3.37   -62.804298    2             
iter:  53  12:08:29  -7.92  -3.32   -62.804299    2             
iter:  54  12:08:47  -7.77  -3.35   -62.804323    2             
iter:  55  12:09:05  -7.66  -3.14   -62.804470    2             
iter:  56  12:09:24  -7.53  -3.02   -62.804733    2             
iter:  57  12:09:42  -7.63  -2.86   -62.804260    2             
iter:  58  12:10:01  -8.50  -3.46   -62.804269    2             
iter:  59  12:10:19  -8.37  -3.45   -62.804265    2             
iter:  60  12:10:38  -8.23  -3.52   -62.804329    2             
iter:  61  12:10:56  -8.08  -3.28   -62.804326    2             
iter:  62  12:11:15  -7.87  -3.19   -62.804430    2             
iter:  63  12:11:33  -7.89  -3.02   -62.804300    2             
iter:  64  12:11:52  -8.30  -3.46   -62.804295    2             
iter:  65  12:12:10  -8.60  -3.47   -62.804283    2             
iter:  66  12:12:29  -8.59  -3.59   -62.804275    2             
iter:  67  12:12:47  -8.45  -3.48   -62.804305    2             
iter:  68  12:13:06  -8.40  -3.44   -62.804339    2             
iter:  69  12:13:24  -8.30  -3.29   -62.804265    2             
iter:  70  12:13:43  -8.38  -3.57   -62.804272    2             
iter:  71  12:14:01  -8.62  -3.61   -62.804270    2             
iter:  72  12:14:20  -8.52  -3.69   -62.804307    2             
iter:  73  12:14:38  -8.54  -3.44   -62.804280    2             
iter:  74  12:14:57  -8.68  -3.46   -62.804281    2             
iter:  75  12:15:15  -8.69  -3.45   -62.804283    2             
iter:  76  12:15:34  -8.84  -3.69   -62.804277    2             
iter:  77  12:15:52  -9.04  -3.77   -62.804273    2             
iter:  78  12:16:11  -8.66  -3.82   -62.804271    2             
iter:  79  12:16:29  -8.60  -3.59   -62.804305    2             
iter:  80  12:16:47  -8.79  -3.46   -62.804303    2             
iter:  81  12:17:06  -8.82  -3.49   -62.804266    2             
iter:  82  12:17:25  -9.13  -3.82   -62.804270    2             
iter:  83  12:17:43  -9.41  -3.95   -62.804271    2             
iter:  84  12:18:02  -9.20  -3.98   -62.804279    2             
iter:  85  12:18:20  -9.14  -3.82   -62.804272    2             
iter:  86  12:18:39  -9.18  -3.66   -62.804271    2             
iter:  87  12:18:57  -9.00  -3.66   -62.804277    2             
iter:  88  12:19:16  -9.14  -3.90   -62.804271    2             
iter:  89  12:19:34  -9.30  -4.03   -62.804269    2             

Converged after 89 iterations.

Dipole moment: (2.092565, 1.208143, -0.000167) |e|*Ang

Energy contributions relative to reference atoms: (reference = -112258.195503)

Kinetic:        +58.387179
Potential:      -27.678280
External:        +0.000000
XC:             -93.306281
Entropy (-ST):   -0.233354
Local:           -0.090210
--------------------------
Free energy:    -62.920946
Extrapolated:   -62.804269

Fermi level: 4.45237

Warning: Showing only first 2 kpts
 Kpt  Band  Eigenvalues  Occupancy
  0    23      5.28662    0.00000
  0    24      6.15684    0.00000
  0    25      6.99538    0.00000
  0    26      7.70839    0.00000

  1    23      5.24427    0.00001
  1    24      6.11502    0.00000
  1    25      6.95387    0.00000
  1    26      7.66583    0.00000


Timing:                              incl.     excl.
-----------------------------------------------------------
Hamiltonian:                         0.686     0.002   0.0% |
 Atomic:                             0.104     0.057   0.0% |
  XC Correction:                     0.047     0.047   0.0% |
 Calculate atomic Hamiltonians:      0.260     0.260   0.0% |
 Communicate:                        0.000     0.000   0.0% |
 Initialize Hamiltonian:             0.000     0.000   0.0% |
 Poisson:                            0.002     0.002   0.0% |
 XC 3D grid:                         0.317     0.317   0.0% |
LCAO initialization:                25.435     0.072   0.0% |
 LCAO eigensolver:                  14.511     0.001   0.0% |
  Calculate projections:             0.007     0.007   0.0% |
  DenseAtomicCorrection:             0.021     0.021   0.0% |
  Distribute overlap matrix:         0.002     0.002   0.0% |
  Orbital Layouts:                   0.113     0.113   0.0% |
  Potential matrix:                 14.269    14.269   0.9% |
  Sum over cells:                    0.098     0.098   0.0% |
 LCAO to grid:                       6.074     6.074   0.4% |
 Set positions (LCAO WFS):           4.777     0.002   0.0% |
  Basic WFS set positions:           0.002     0.002   0.0% |
  Basis functions set positions:     0.000     0.000   0.0% |
  TCI: Calculate S, T, P:            4.773     4.773   0.3% |
PWDescriptor:                        0.018     0.018   0.0% |
SCF-cycle:                        1640.154   149.141   8.9% |---|
 Density:                          127.217     0.002   0.0% |
  Atomic density matrices:           0.517     0.517   0.0% |
  Mix:                              38.575    38.575   2.3% ||
  Multipole moments:                 0.039     0.039   0.0% |
  Pseudo density:                   88.085    85.993   5.2% |-|
   Symmetrize density:               2.092     2.092   0.1% |
 Hamiltonian:                       49.146     0.153   0.0% |
  Atomic:                            8.875     4.795   0.3% |
   XC Correction:                    4.080     4.080   0.2% |
  Calculate atomic Hamiltonians:    13.196    13.196   0.8% |
  Communicate:                       0.018     0.018   0.0% |
  Poisson:                           0.154     0.154   0.0% |
  XC 3D grid:                       26.749    26.749   1.6% ||
 Orthonormalize:                    60.533     0.026   0.0% |
  Band Layouts:                      0.089     0.004   0.0% |
   Inverse Cholesky:                 0.085     0.085   0.0% |
  calc_s_matrix:                     5.558     5.558   0.3% |
  projections:                      46.763    46.763   2.8% ||
  rotate_psi:                        8.097     8.097   0.5% |
 RMM-DIIS:                        1130.156   100.451   6.0% |-|
  Calculate residuals:             238.183   238.183  14.3% |-----|
  DIIS step:                       528.417     6.568   0.4% |
   Calculate residuals:            473.385   473.385  28.4% |----------|
   Construct matrix:                 6.187     6.187   0.4% |
   Linear solve:                     1.025     1.025   0.1% |
   Update trial vectors:             8.522     8.522   0.5% |
   precondition:                    32.729    32.729   2.0% ||
  Find lambda:                       4.393     4.393   0.3% |
  Update psi:                        3.272     3.272   0.2% |
  precondition:                     68.509    68.509   4.1% |-|
  projections:                     186.931   186.931  11.2% |---|
 Subspace diag:                    123.962     0.046   0.0% |
  Band Layouts:                      0.517     0.009   0.0% |
   Diagonalize:                      0.501     0.501   0.0% |
   Distribute results:               0.008     0.008   0.0% |
  calc_h_matrix:                   104.839   104.839   6.3% |--|
  rotate_psi:                       18.560    18.560   1.1% |
Set symmetry:                        0.104     0.104   0.0% |
Other:                               1.664     1.664   0.1% |
-----------------------------------------------------------
Total:                                      1668.061 100.0%

Memory usage: 503.25 MiB
Date: Tue Feb  6 12:19:34 2018
