
  ___ ___ ___ _ _ _  
 |   |   |_  | | | | 
 | | | | | . | | | | 
 |__ |  _|___|_____|  1.3.0
 |___|_|             

User:   edenborg@hebbe14-7
Date:   Tue Feb  6 11:24:49 2018
Arch:   x86_64
Pid:    4521
Python: 2.7.14
gpaw:   /apps/Hebbe/software/MPI/intel/2017.4.196-GCC-6.4.0-2.28/impi/2017.3.196/GPAW/1.3.0-Python-2.7.14/lib/python2.7/site-packages/gpaw
_gpaw:  /apps/Hebbe/software/MPI/intel/2017.4.196-GCC-6.4.0-2.28/impi/2017.3.196/GPAW/1.3.0-Python-2.7.14/bin/
       gpaw-python
ase:    /c3se/users/edenborg/Hebbe/ase/ase (version 3.15.1b1)
numpy:  /apps/Hebbe/software/MPI/intel/2017.4.196-GCC-6.4.0-2.28/impi/2017.3.196/Python/2.7.14/lib/python2.7/site-packages/numpy-1.13.1-py2.7-linux-x86_64.egg/numpy (version 1.13.1)
scipy:  /apps/Hebbe/software/MPI/intel/2017.4.196-GCC-6.4.0-2.28/impi/2017.3.196/Python/2.7.14/lib/python2.7/site-packages/scipy-0.19.1-py2.7-linux-x86_64.egg/scipy (version 0.19.1)
units:  Angstrom and eV
cores:  12

Input parameters:
  basis: dzp
  eigensolver: rmm-diis
  kpts: [16 16  1]
  mode: {ecut: 650.0,
         name: pw}
  xc: PBE

System changes: positions, numbers, cell, pbc, initial_charges, initial_magmoms 

Initialize ...

Al-setup:
  name: Aluminium
  id: 0292cae29f5d6237e50f6abdd43a7bdd
  Z: 13
  valence: 3
  core: 10
  charge: 0.0
  file: /c3se/apps/Glenn/gpaw/gpaw-setups-0.9.11271/Al.PBE.gz
  cutoffs: 1.08(comp), 1.91(filt), 2.36(core), lmax=2
  valence states:
                energy  radius
    3s(2.00)    -7.753   1.085
    3p(1.00)    -2.712   1.085
    *s          19.459   1.085
    *p          24.499   1.085
    *d           0.000   1.085

  LCAO basis set for Al:
    Name: dzp
    File: /c3se/apps/Glenn/gpaw/gpaw-setups-0.9.11271/Al.dzp.basis.gz
    Number of radial functions: 5
    Number of spherical harmonics: 13
      l=0, rc=7.8750 Bohr: 3s-sz confined orbital
      l=1, rc=10.4219 Bohr: 3p-sz confined orbital
      l=0, rc=4.6094 Bohr: 3s-dz split-valence wave
      l=1, rc=6.2812 Bohr: 3p-dz split-valence wave
      l=2, rc=10.4219 Bohr: d-type Gaussian polarization

Reference energy: -19810.269795

Spin-paired calculation

Occupation numbers:
  Fermi-Dirac: width=0.1000 eV

Convergence criteria:
  Maximum total energy change: 0.0005 eV / electron
  Maximum integral of absolute density change: 0.0001 electrons
  Maximum integral of absolute eigenstate change: 4e-08 eV^2
  Maximum number of iterations: 333

Symmetries present (total): 6

  ( 1  0  0)  ( 1 -1  0)  ( 0  1  0)  ( 0 -1  0)  (-1  1  0)  (-1  0  0)
  ( 0  1  0)  ( 0 -1  0)  ( 1  0  0)  ( 1 -1  0)  (-1  0  0)  (-1  1  0)
  ( 0  0  1)  ( 0  0  1)  ( 0  0  1)  ( 0  0  1)  ( 0  0  1)  ( 0  0  1)
Note: your k-points are not as symmetric as your crystal!

256 k-points: 16 x 16 x 1 Monkhorst-Pack grid
72 k-points in the irreducible part of the Brillouin zone
       k-points in crystal coordinates                weights
   0:     0.03125000   -0.03125000    0.00000000          2/256
   1:     0.03125000    0.03125000    0.00000000          2/256
   2:     0.09375000   -0.09375000    0.00000000          2/256
   3:     0.09375000   -0.03125000    0.00000000          4/256
   4:     0.09375000    0.03125000    0.00000000          4/256
   5:     0.09375000    0.09375000    0.00000000          2/256
   6:     0.15625000   -0.15625000    0.00000000          2/256
   7:     0.15625000   -0.09375000    0.00000000          4/256
   8:     0.15625000   -0.03125000    0.00000000          4/256
   9:     0.15625000    0.03125000    0.00000000          4/256
          ...
  71:     0.46875000    0.46875000    0.00000000          2/256

Wave functions: Plane wave expansion
  Cutoff energy: 650.000 eV
  Number of coefficients (min, max): 5177, 5290
  Using FFTW library
  Eigensolver: None  MatrixOperator buffer_size: default value or 
                              see value of nblock in input file
Diagonalizer layout: Serial LAPACKOrthonormalizer layout: Serial LAPACK 

RMM-DIIS eigensolver
       keep_htpsit: True
       Block size: 10
       DIIS iterations: 3
       Threshold for DIIS: 1.0e-16
       Limit lambda: False
       use_rayleigh: False
       trial_step: 0.1 

Densities:
  Coarse grid: 15*15*120 grid
  Fine grid: 30*30*240 grid
  Total Charge: 0.000000 

Density mixing:
  Method: separate
  Backend: pulay
  Linear mixing parameter: 0.05
  Mixing with 5 old densities
  Damping of long wave oscillations: 50 

Hamiltonian:
  XC and Coulomb potentials evaluated on a 30*30*240 grid
  Using the PBE Exchange-Correlation functional
 

Memory estimate:
  Process memory now: 100.33 MiB
  Calculator: 27.83 MiB
    Density: 11.34 MiB
      Arrays: 5.36 MiB
      Localized functions: 3.93 MiB
      Mixer: 2.06 MiB
    Hamiltonian: 3.58 MiB
      Arrays: 3.50 MiB
      XC: 0.00 MiB
      Poisson: 0.00 MiB
      vbar: 0.08 MiB
    Wavefunctions: 12.91 MiB
      Arrays psit_nG: 5.81 MiB
      Eigensolver: 1.37 MiB
      Projections: 0.04 MiB
      Projectors: 3.32 MiB
      Overlap op: 0.97 MiB
      PW-descriptor: 1.39 MiB

Total number of cores used: 12
Parallelization over k-points: 12

Number of atoms: 3
Number of atomic orbitals: 39
Number of bands in calculation: 12
Bands to converge: occupied states only
Number of valence electrons: 9

... initialized

Initializing position-dependent things.

Density initialized from atomic densities
Creating initial wave functions:
  12 bands from LCAO basis set

                    
                    
                    
                    
       Al           
                    
                    
        Al          
                    
                    
           Al       
                    
                    
                    
                    

Positions:
   0 Al     1.429770    0.825478    7.500000
   1 Al     0.000000    1.650956    9.834804
   2 Al     0.000000    0.000000   12.169609

Unit cell:
           periodic     x           y           z      points  spacing
  1. axis:    yes    2.859540    0.000000    0.000000    15     0.1651
  2. axis:    yes    1.429770    2.476434    0.000000    15     0.1651
  3. axis:    no     0.000000    0.000000   19.669609   120     0.1639

  Lengths:   2.859540   2.859540  19.669609
  Angles:   90.000000  90.000000  60.000000

Effective grid spacing dv^(1/3) = 0.1728

                     log10-error:    total        iterations:
           time      wfs    density  energy       fermi  poisson
iter:   1  11:24:53  +1.22   +inf   -10.423096    3             
iter:   2  11:24:54  -2.00   +inf   -10.667413    3             
iter:   3  11:24:55  -3.18   +inf   -10.669611    2             
iter:   4  11:24:55  -3.06  -0.83   -10.595392    4             
iter:   5  11:24:56  -2.10  -0.88   -10.538453    31            
iter:   6  11:24:57  -1.72  -1.04   -10.506788    3             
iter:   7  11:24:58  -2.70  -1.53   -10.526244    3             
iter:   8  11:24:59  -2.28  -1.56   -10.508164    3             
iter:   9  11:25:00  -3.92  -2.51   -10.510926    3             
iter:  10  11:25:01  -4.84  -2.68   -10.510966    2             
iter:  11  11:25:02  -4.91  -2.79   -10.510975    2             
iter:  12  11:25:03  -5.81  -3.61   -10.510978    2             
iter:  13  11:25:03  -6.21  -3.64   -10.510981    2             
iter:  14  11:25:04  -6.74  -3.69   -10.510981    2             
iter:  15  11:25:05  -7.28  -3.82   -10.510981    2             
iter:  16  11:25:06  -6.81  -3.85   -10.510978    2             
iter:  17  11:25:07  -7.88  -4.23   -10.510978    2             

Converged after 17 iterations.

Dipole moment: (-0.042415, -0.024488, 0.000000) |e|*Ang

Energy contributions relative to reference atoms: (reference = -19810.269795)

Kinetic:         +7.830881
Potential:       -3.665999
External:        +0.000000
XC:             -14.640062
Entropy (-ST):   -0.043860
Local:           -0.013867
--------------------------
Free energy:    -10.532908
Extrapolated:   -10.510978

Fermi level: 0.12349

Warning: Showing only first 2 kpts
 Kpt  Band  Eigenvalues  Occupancy
  0     2     -6.07676    0.01562
  0     3     -2.95795    0.01562
  0     4      0.54263    0.00023
  0     5      3.06754    0.00000

  1     2     -6.12329    0.01562
  1     3     -3.00229    0.01562
  1     4      0.49840    0.00036
  1     5      3.02210    0.00000


Timing:                              incl.     excl.
-----------------------------------------------------------
Hamiltonian:                         0.225     0.001   0.0% |
 Atomic:                             0.052     0.052   0.3% |
  XC Correction:                     0.000     0.000   0.0% |
 Calculate atomic Hamiltonians:      0.044     0.044   0.2% |
 Communicate:                        0.000     0.000   0.0% |
 Initialize Hamiltonian:             0.000     0.000   0.0% |
 Poisson:                            0.001     0.001   0.0% |
 XC 3D grid:                         0.126     0.126   0.7% |
LCAO initialization:                 2.441     0.074   0.4% |
 LCAO eigensolver:                   1.582     0.000   0.0% |
  Calculate projections:             0.000     0.000   0.0% |
  DenseAtomicCorrection:             0.001     0.001   0.0% |
  Distribute overlap matrix:         0.000     0.000   0.0% |
  Orbital Layouts:                   0.003     0.003   0.0% |
  Potential matrix:                  1.571     1.571   8.8% |---|
  Sum over cells:                    0.007     0.007   0.0% |
 LCAO to grid:                       0.283     0.283   1.6% ||
 Set positions (LCAO WFS):           0.502     0.000   0.0% |
  Basic WFS set positions:           0.001     0.001   0.0% |
  Basis functions set positions:     0.000     0.000   0.0% |
  TCI: Calculate S, T, P:            0.501     0.501   2.8% ||
PWDescriptor:                        0.008     0.008   0.0% |
SCF-cycle:                          14.519     1.250   7.0% |--|
 Density:                            1.628     0.000   0.0% |
  Atomic density matrices:           0.017     0.017   0.1% |
  Mix:                               0.542     0.542   3.0% ||
  Multipole moments:                 0.002     0.002   0.0% |
  Pseudo density:                    1.067     0.936   5.2% |-|
   Symmetrize density:               0.130     0.130   0.7% |
 Hamiltonian:                        2.598     0.010   0.1% |
  Atomic:                            0.728     0.727   4.1% |-|
   XC Correction:                    0.000     0.000   0.0% |
  Calculate atomic Hamiltonians:     0.202     0.202   1.1% |
  Communicate:                       0.002     0.002   0.0% |
  Poisson:                           0.010     0.010   0.1% |
  XC 3D grid:                        1.647     1.647   9.2% |---|
 Orthonormalize:                     0.460     0.003   0.0% |
  Band Layouts:                      0.003     0.001   0.0% |
   Inverse Cholesky:                 0.002     0.002   0.0% |
  calc_s_matrix:                     0.032     0.032   0.2% |
  projections:                       0.389     0.389   2.2% ||
  rotate_psi:                        0.034     0.034   0.2% |
 RMM-DIIS:                           7.273     1.250   7.0% |--|
  Calculate residuals:               1.080     1.080   6.0% |-|
  DIIS step:                         3.251     0.065   0.4% |
   Calculate residuals:              2.541     2.541  14.2% |-----|
   Construct matrix:                 0.087     0.087   0.5% |
   Linear solve:                     0.034     0.034   0.2% |
   Update trial vectors:             0.100     0.100   0.6% |
   precondition:                     0.425     0.425   2.4% ||
  Find lambda:                       0.070     0.070   0.4% |
  Update psi:                        0.033     0.033   0.2% |
  precondition:                      0.911     0.911   5.1% |-|
  projections:                       0.677     0.677   3.8% |-|
 Subspace diag:                      1.310     0.005   0.0% |
  Band Layouts:                      0.009     0.001   0.0% |
   Diagonalize:                      0.007     0.007   0.0% |
   Distribute results:               0.001     0.001   0.0% |
  calc_h_matrix:                     1.229     1.229   6.8% |--|
  rotate_psi:                        0.067     0.067   0.4% |
Set symmetry:                        0.098     0.098   0.5% |
Other:                               0.658     0.658   3.7% ||
-----------------------------------------------------------
Total:                                        17.949 100.0%

Memory usage: 138.77 MiB
Date: Tue Feb  6 11:25:07 2018
