
  ___ ___ ___ _ _ _  
 |   |   |_  | | | | 
 | | | | | . | | | | 
 |__ |  _|___|_____|  1.3.0
 |___|_|             

User:   fantm@hebbe07-3
Date:   Mon Feb  5 19:34:45 2018
Arch:   x86_64
Pid:    15869
Python: 2.7.14
gpaw:   /apps/Hebbe/software/MPI/intel/2017.4.196-GCC-6.4.0-2.28/impi/2017.3.196/GPAW/1.3.0-Python-2.7.14/lib/python2.7/site-packages/gpaw
_gpaw:  /apps/Hebbe/software/MPI/intel/2017.4.196-GCC-6.4.0-2.28/impi/2017.3.196/GPAW/1.3.0-Python-2.7.14/bin/
       gpaw-python
ase:    /apps/Hebbe/software/MPI/intel/2017.4.196-GCC-6.4.0-2.28/impi/2017.3.196/ASE/3.15.0-Python-2.7.14/lib/python2.7/site-packages/ase-3.15.0-py2.7.egg/ase (version 3.15.0)
numpy:  /apps/Hebbe/software/MPI/intel/2017.4.196-GCC-6.4.0-2.28/impi/2017.3.196/Python/2.7.14/lib/python2.7/site-packages/numpy-1.13.1-py2.7-linux-x86_64.egg/numpy (version 1.13.1)
scipy:  /apps/Hebbe/software/MPI/intel/2017.4.196-GCC-6.4.0-2.28/impi/2017.3.196/Python/2.7.14/lib/python2.7/site-packages/scipy-0.19.1-py2.7-linux-x86_64.egg/scipy (version 0.19.1)
units:  Angstrom and eV
cores:  12

Input parameters:
  basis: dzp
  eigensolver: rmm-diis
  kpts: [16 16  1]
  mode: {ecut: 650.0,
         name: pw}
  xc: PBE

System changes: positions, numbers, cell, pbc, initial_charges, initial_magmoms 

Initialize ...

Al-setup:
  name: Aluminium
  id: 0292cae29f5d6237e50f6abdd43a7bdd
  Z: 13
  valence: 3
  core: 10
  charge: 0.0
  file: /c3se/apps/Glenn/gpaw/gpaw-setups-0.9.11271/Al.PBE.gz
  cutoffs: 1.08(comp), 1.91(filt), 2.36(core), lmax=2
  valence states:
                energy  radius
    3s(2.00)    -7.753   1.085
    3p(1.00)    -2.712   1.085
    *s          19.459   1.085
    *p          24.499   1.085
    *d           0.000   1.085

  LCAO basis set for Al:
    Name: dzp
    File: /c3se/apps/Glenn/gpaw/gpaw-setups-0.9.11271/Al.dzp.basis.gz
    Number of radial functions: 5
    Number of spherical harmonics: 13
      l=0, rc=7.8750 Bohr: 3s-sz confined orbital
      l=1, rc=10.4219 Bohr: 3p-sz confined orbital
      l=0, rc=4.6094 Bohr: 3s-dz split-valence wave
      l=1, rc=6.2812 Bohr: 3p-dz split-valence wave
      l=2, rc=10.4219 Bohr: d-type Gaussian polarization

Reference energy: -59430.809384

Spin-paired calculation

Occupation numbers:
  Fermi-Dirac: width=0.1000 eV

Convergence criteria:
  Maximum total energy change: 0.0005 eV / electron
  Maximum integral of absolute density change: 0.0001 electrons
  Maximum integral of absolute eigenstate change: 4e-08 eV^2
  Maximum number of iterations: 333

Symmetries present (total): 6

  ( 1  0  0)  ( 1 -1  0)  ( 0  1  0)  ( 0 -1  0)  (-1  1  0)  (-1  0  0)
  ( 0  1  0)  ( 0 -1  0)  ( 1  0  0)  ( 1 -1  0)  (-1  0  0)  (-1  1  0)
  ( 0  0  1)  ( 0  0  1)  ( 0  0  1)  ( 0  0  1)  ( 0  0  1)  ( 0  0  1)
Note: your k-points are not as symmetric as your crystal!

256 k-points: 16 x 16 x 1 Monkhorst-Pack grid
72 k-points in the irreducible part of the Brillouin zone
       k-points in crystal coordinates                weights
   0:     0.03125000   -0.03125000    0.00000000          2/256
   1:     0.03125000    0.03125000    0.00000000          2/256
   2:     0.09375000   -0.09375000    0.00000000          2/256
   3:     0.09375000   -0.03125000    0.00000000          4/256
   4:     0.09375000    0.03125000    0.00000000          4/256
   5:     0.09375000    0.09375000    0.00000000          2/256
   6:     0.15625000   -0.15625000    0.00000000          2/256
   7:     0.15625000   -0.09375000    0.00000000          4/256
   8:     0.15625000   -0.03125000    0.00000000          4/256
   9:     0.15625000    0.03125000    0.00000000          4/256
          ...
  71:     0.46875000    0.46875000    0.00000000          2/256

Wave functions: Plane wave expansion
  Cutoff energy: 650.000 eV
  Number of coefficients (min, max): 8848, 9024
  Using FFTW library
  Eigensolver: None  MatrixOperator buffer_size: default value or 
                              see value of nblock in input file
Diagonalizer layout: Serial LAPACKOrthonormalizer layout: Serial LAPACK 

RMM-DIIS eigensolver
       keep_htpsit: True
       Block size: 10
       DIIS iterations: 3
       Threshold for DIIS: 1.0e-16
       Limit lambda: False
       use_rayleigh: False
       trial_step: 0.1 

Densities:
  Coarse grid: 15*15*200 grid
  Fine grid: 30*30*400 grid
  Total Charge: 0.000000 

Density mixing:
  Method: separate
  Backend: pulay
  Linear mixing parameter: 0.05
  Mixing with 5 old densities
  Damping of long wave oscillations: 50 

Hamiltonian:
  XC and Coulomb potentials evaluated on a 30*30*400 grid
  Using the PBE Exchange-Correlation functional
 

Memory estimate:
  Process memory now: 222.56 MiB
  Calculator: 73.80 MiB
    Density: 19.07 MiB
      Arrays: 8.93 MiB
      Localized functions: 6.71 MiB
      Mixer: 3.43 MiB
    Hamiltonian: 5.97 MiB
      Arrays: 5.84 MiB
      XC: 0.00 MiB
      Poisson: 0.00 MiB
      vbar: 0.14 MiB
    Wavefunctions: 48.75 MiB
      Arrays psit_nG: 29.74 MiB
      Eigensolver: 5.65 MiB
      Projections: 0.39 MiB
      Projectors: 5.68 MiB
      Overlap op: 4.98 MiB
      PW-descriptor: 2.32 MiB

Total number of cores used: 12
Parallelization over k-points: 12

Number of atoms: 9
Number of atomic orbitals: 117
Number of bands in calculation: 36
Bands to converge: occupied states only
Number of valence electrons: 27

... initialized

Initializing position-dependent things.

Density initialized from atomic densities
Creating initial wave functions:
  36 bands from LCAO basis set

                    
                    
                    
                    
       Al           
                    
        Al          
                    
                    
                    
           Al       
                    
                    
       Al           
                    
        Al          
                    
                    
           Al       
                    
                    
                    
       Al           
                    
        Al          
                    
                    
           Al       
                    
                    
                    
                    

Positions:
   0 Al     1.428356    0.824662    7.500000
   1 Al     0.000000    1.649323    9.832495
   2 Al     0.000000    0.000000   12.164990
   3 Al     1.428356    0.824662   14.497485
   4 Al     0.000000    1.649323   16.829980
   5 Al     0.000000    0.000000   19.162475
   6 Al     1.428356    0.824662   21.494971
   7 Al     0.000000    1.649323   23.827466
   8 Al     0.000000    0.000000   26.159961

Unit cell:
           periodic     x           y           z      points  spacing
  1. axis:    yes    2.856711    0.000000    0.000000    15     0.1649
  2. axis:    yes    1.428356    2.473985    0.000000    15     0.1649
  3. axis:    no     0.000000    0.000000   33.659961   200     0.1683

  Lengths:   2.856711   2.856711  33.659961
  Angles:   90.000000  90.000000  60.000000

Effective grid spacing dv^(1/3) = 0.1742

                     log10-error:    total        iterations:
           time      wfs    density  energy       fermi  poisson
iter:   1  19:35:03  +1.28   +inf   -32.368351    3             
iter:   2  19:35:07  -2.19   +inf   -33.105762    3             
iter:   3  19:35:11  -3.34   +inf   -33.109890    2             
iter:   4  19:35:16  -3.30  -0.89   -33.125116    33            
iter:   5  19:35:21  -3.53  -0.92   -33.076463    3             
iter:   6  19:35:26  -2.37  -0.93   -32.960805    32            
iter:   7  19:35:31  -2.19  -1.13   -33.003677    3             
iter:   8  19:35:36  -2.66  -1.42   -32.941834    3             
iter:   9  19:35:40  -3.63  -1.83   -32.927685    3             
iter:  10  19:35:45  -3.32  -1.95   -32.918818    3             
iter:  11  19:35:50  -4.34  -2.34   -32.919082    2             
iter:  12  19:35:55  -5.60  -2.39   -32.918415    3             
iter:  13  19:36:00  -4.47  -2.51   -32.917936    2             
iter:  14  19:36:05  -5.67  -2.78   -32.917990    2             
iter:  15  19:36:10  -5.97  -2.82   -32.918047    2             
iter:  16  19:36:14  -6.17  -2.89   -32.918892    2             
iter:  17  19:36:19  -5.61  -2.53   -32.918057    2             
iter:  18  19:36:24  -6.49  -3.16   -32.918045    2             
iter:  19  19:36:29  -7.26  -3.22   -32.918049    2             
iter:  20  19:36:34  -6.67  -3.27   -32.918031    2             
iter:  21  19:36:39  -6.57  -3.39   -32.918024    2             
iter:  22  19:36:44  -7.78  -3.54   -32.918033    2             
iter:  23  19:36:49  -7.80  -3.41   -32.918022    2             
iter:  24  19:36:53  -7.19  -3.66   -32.918028    2             
iter:  25  19:36:58  -8.00  -3.73   -32.918022    2             
iter:  26  19:37:03  -7.94  -3.78   -32.918024    2             
iter:  27  19:37:08  -7.50  -3.87   -32.918024    2             
iter:  28  19:37:13  -8.44  -3.95   -32.918025    2             
iter:  29  19:37:18  -8.83  -3.83   -32.918024    1             
iter:  30  19:37:23  -7.94  -4.02   -32.918023    2             

Converged after 30 iterations.

Dipole moment: (-0.044210, -0.025525, 0.000002) |e|*Ang

Energy contributions relative to reference atoms: (reference = -59430.809384)

Kinetic:        +30.313919
Potential:      -14.568591
External:        +0.000000
XC:             -48.547188
Entropy (-ST):   -0.120468
Local:           -0.055929
--------------------------
Free energy:    -32.978257
Extrapolated:   -32.918023

Fermi level: 2.97234

Warning: Showing only first 2 kpts
 Kpt  Band  Eigenvalues  Occupancy
  0    11      1.99476    0.01562
  0    12      3.50745    0.00007
  0    13      4.96754    0.00000
  0    14      6.14398    0.00000

  1    11      1.95101    0.01562
  1    12      3.46440    0.00011
  1    13      4.92500    0.00000
  1    14      6.10014    0.00000


Timing:                              incl.     excl.
-----------------------------------------------------------
Hamiltonian:                         0.337     0.001   0.0% |
 Atomic:                             0.053     0.053   0.0% |
  XC Correction:                     0.000     0.000   0.0% |
 Calculate atomic Hamiltonians:      0.080     0.080   0.1% |
 Communicate:                        0.000     0.000   0.0% |
 Initialize Hamiltonian:             0.000     0.000   0.0% |
 Poisson:                            0.001     0.001   0.0% |
 XC 3D grid:                         0.201     0.201   0.1% |
LCAO initialization:                11.038     0.071   0.0% |
 LCAO eigensolver:                   6.865     0.001   0.0% |
  Calculate projections:             0.001     0.001   0.0% |
  DenseAtomicCorrection:             0.005     0.005   0.0% |
  Distribute overlap matrix:         0.001     0.001   0.0% |
  Orbital Layouts:                   0.024     0.024   0.0% |
  Potential matrix:                  6.804     6.804   4.3% |-|
  Sum over cells:                    0.030     0.030   0.0% |
 LCAO to grid:                       1.773     1.773   1.1% |
 Set positions (LCAO WFS):           2.328     0.001   0.0% |
  Basic WFS set positions:           0.001     0.001   0.0% |
  Basis functions set positions:     0.000     0.000   0.0% |
  TCI: Calculate S, T, P:            2.326     2.326   1.5% ||
PWDescriptor:                        0.012     0.012   0.0% |
SCF-cycle:                         144.695    14.511   9.2% |---|
 Density:                           14.684     0.001   0.0% |
  Atomic density matrices:           0.088     0.088   0.1% |
  Mix:                               4.268     4.268   2.7% ||
  Multipole moments:                 0.007     0.007   0.0% |
  Pseudo density:                   10.320     9.903   6.3% |--|
   Symmetrize density:               0.418     0.418   0.3% |
 Hamiltonian:                        8.677     0.028   0.0% |
  Atomic:                            1.446     1.446   0.9% |
   XC Correction:                    0.000     0.000   0.0% |
  Calculate atomic Hamiltonians:     1.893     1.893   1.2% |
  Communicate:                       0.005     0.005   0.0% |
  Poisson:                           0.032     0.032   0.0% |
  XC 3D grid:                        5.274     5.274   3.4% ||
 Orthonormalize:                     5.232     0.008   0.0% |
  Band Layouts:                      0.012     0.001   0.0% |
   Inverse Cholesky:                 0.011     0.011   0.0% |
  calc_s_matrix:                     0.421     0.421   0.3% |
  projections:                       4.207     4.207   2.7% ||
  rotate_psi:                        0.583     0.583   0.4% |
 RMM-DIIS:                          89.355    11.034   7.0% |--|
  Calculate residuals:              16.161    16.161  10.3% |---|
  DIIS step:                        40.973     0.732   0.5% |
   Calculate residuals:             34.475    34.475  21.9% |--------|
   Construct matrix:                 0.784     0.784   0.5% |
   Linear solve:                     0.186     0.186   0.1% |
   Update trial vectors:             0.949     0.949   0.6% |
   precondition:                     3.847     3.847   2.4% ||
  Find lambda:                       0.548     0.548   0.3% |
  Update psi:                        0.360     0.360   0.2% |
  precondition:                      8.092     8.092   5.1% |-|
  projections:                      12.188    12.188   7.8% |--|
 Subspace diag:                     12.235     0.011   0.0% |
  Band Layouts:                      0.065     0.003   0.0% |
   Diagonalize:                      0.060     0.060   0.0% |
   Distribute results:               0.002     0.002   0.0% |
  calc_h_matrix:                    11.012    11.012   7.0% |--|
  rotate_psi:                        1.147     1.147   0.7% |
Set symmetry:                        0.130     0.130   0.1% |
Other:                               1.026     1.026   0.7% |
-----------------------------------------------------------
Total:                                       157.238 100.0%

Memory usage: 270.03 MiB
Date: Mon Feb  5 19:37:23 2018
