
  ___ ___ ___ _ _ _  
 |   |   |_  | | | | 
 | | | | | . | | | | 
 |__ |  _|___|_____|  1.3.0
 |___|_|             

User:   edenborg@hebbe14-7
Date:   Tue Feb  6 11:25:40 2018
Arch:   x86_64
Pid:    4521
Python: 2.7.14
gpaw:   /apps/Hebbe/software/MPI/intel/2017.4.196-GCC-6.4.0-2.28/impi/2017.3.196/GPAW/1.3.0-Python-2.7.14/lib/python2.7/site-packages/gpaw
_gpaw:  /apps/Hebbe/software/MPI/intel/2017.4.196-GCC-6.4.0-2.28/impi/2017.3.196/GPAW/1.3.0-Python-2.7.14/bin/
       gpaw-python
ase:    /c3se/users/edenborg/Hebbe/ase/ase (version 3.15.1b1)
numpy:  /apps/Hebbe/software/MPI/intel/2017.4.196-GCC-6.4.0-2.28/impi/2017.3.196/Python/2.7.14/lib/python2.7/site-packages/numpy-1.13.1-py2.7-linux-x86_64.egg/numpy (version 1.13.1)
scipy:  /apps/Hebbe/software/MPI/intel/2017.4.196-GCC-6.4.0-2.28/impi/2017.3.196/Python/2.7.14/lib/python2.7/site-packages/scipy-0.19.1-py2.7-linux-x86_64.egg/scipy (version 0.19.1)
units:  Angstrom and eV
cores:  12

Input parameters:
  basis: dzp
  eigensolver: rmm-diis
  kpts: [16 16  1]
  mode: {ecut: 650.0,
         name: pw}
  xc: PBE

System changes: positions, numbers, cell, pbc, initial_charges, initial_magmoms 

Initialize ...

Al-setup:
  name: Aluminium
  id: 0292cae29f5d6237e50f6abdd43a7bdd
  Z: 13
  valence: 3
  core: 10
  charge: 0.0
  file: /c3se/apps/Glenn/gpaw/gpaw-setups-0.9.11271/Al.PBE.gz
  cutoffs: 1.08(comp), 1.91(filt), 2.36(core), lmax=2
  valence states:
                energy  radius
    3s(2.00)    -7.753   1.085
    3p(1.00)    -2.712   1.085
    *s          19.459   1.085
    *p          24.499   1.085
    *d           0.000   1.085

  LCAO basis set for Al:
    Name: dzp
    File: /c3se/apps/Glenn/gpaw/gpaw-setups-0.9.11271/Al.dzp.basis.gz
    Number of radial functions: 5
    Number of spherical harmonics: 13
      l=0, rc=7.8750 Bohr: 3s-sz confined orbital
      l=1, rc=10.4219 Bohr: 3p-sz confined orbital
      l=0, rc=4.6094 Bohr: 3s-dz split-valence wave
      l=1, rc=6.2812 Bohr: 3p-dz split-valence wave
      l=2, rc=10.4219 Bohr: d-type Gaussian polarization

Reference energy: -46223.962854

Spin-paired calculation

Occupation numbers:
  Fermi-Dirac: width=0.1000 eV

Convergence criteria:
  Maximum total energy change: 0.0005 eV / electron
  Maximum integral of absolute density change: 0.0001 electrons
  Maximum integral of absolute eigenstate change: 4e-08 eV^2
  Maximum number of iterations: 333

Symmetries present (total): 6

  ( 1  0  0)  ( 1 -1  0)  ( 0  1  0)  ( 0 -1  0)  (-1  1  0)  (-1  0  0)
  ( 0  1  0)  ( 0 -1  0)  ( 1  0  0)  ( 1 -1  0)  (-1  0  0)  (-1  1  0)
  ( 0  0  1)  ( 0  0  1)  ( 0  0  1)  ( 0  0  1)  ( 0  0  1)  ( 0  0  1)
Note: your k-points are not as symmetric as your crystal!

256 k-points: 16 x 16 x 1 Monkhorst-Pack grid
72 k-points in the irreducible part of the Brillouin zone
       k-points in crystal coordinates                weights
   0:     0.03125000   -0.03125000    0.00000000          2/256
   1:     0.03125000    0.03125000    0.00000000          2/256
   2:     0.09375000   -0.09375000    0.00000000          2/256
   3:     0.09375000   -0.03125000    0.00000000          4/256
   4:     0.09375000    0.03125000    0.00000000          4/256
   5:     0.09375000    0.09375000    0.00000000          2/256
   6:     0.15625000   -0.15625000    0.00000000          2/256
   7:     0.15625000   -0.09375000    0.00000000          4/256
   8:     0.15625000   -0.03125000    0.00000000          4/256
   9:     0.15625000    0.03125000    0.00000000          4/256
          ...
  71:     0.46875000    0.46875000    0.00000000          2/256

Wave functions: Plane wave expansion
  Cutoff energy: 650.000 eV
  Number of coefficients (min, max): 7629, 7790
  Using FFTW library
  Eigensolver: None  MatrixOperator buffer_size: default value or 
                              see value of nblock in input file
Diagonalizer layout: Serial LAPACKOrthonormalizer layout: Serial LAPACK 

RMM-DIIS eigensolver
       keep_htpsit: True
       Block size: 10
       DIIS iterations: 3
       Threshold for DIIS: 1.0e-16
       Limit lambda: False
       use_rayleigh: False
       trial_step: 0.1 

Densities:
  Coarse grid: 15*15*175 grid
  Fine grid: 30*30*350 grid
  Total Charge: 0.000000 

Density mixing:
  Method: separate
  Backend: pulay
  Linear mixing parameter: 0.05
  Mixing with 5 old densities
  Damping of long wave oscillations: 50 

Hamiltonian:
  XC and Coulomb potentials evaluated on a 30*30*350 grid
  Using the PBE Exchange-Correlation functional
 

Memory estimate:
  Process memory now: 175.75 MiB
  Calculator: 56.22 MiB
    Density: 16.59 MiB
      Arrays: 7.81 MiB
      Localized functions: 5.78 MiB
      Mixer: 3.00 MiB
    Hamiltonian: 5.23 MiB
      Arrays: 5.11 MiB
      XC: 0.00 MiB
      Poisson: 0.00 MiB
      vbar: 0.12 MiB
    Wavefunctions: 34.40 MiB
      Arrays psit_nG: 19.97 MiB
      Eigensolver: 3.92 MiB
      Projections: 0.23 MiB
      Projectors: 4.90 MiB
      Overlap op: 3.34 MiB
      PW-descriptor: 2.03 MiB

Total number of cores used: 12
Parallelization over k-points: 12

Number of atoms: 7
Number of atomic orbitals: 91
Number of bands in calculation: 28
Bands to converge: occupied states only
Number of valence electrons: 21

... initialized

Initializing position-dependent things.

Density initialized from atomic densities
Creating initial wave functions:
  28 bands from LCAO basis set

                    
                    
                    
                    
       Al           
                    
        Al          
                    
                    
                    
           Al       
                    
                    
       Al           
                    
        Al          
                    
                    
           Al       
                    
                    
       Al           
                    
                    
                    
                    

Positions:
   0 Al     0.000000    0.000000    7.500000
   1 Al     1.429770    0.825478    9.834804
   2 Al     0.000000    1.650956   12.169609
   3 Al     0.000000    0.000000   14.504413
   4 Al     1.429770    0.825478   16.839218
   5 Al     0.000000    1.650956   19.174022
   6 Al     0.000000    0.000000   21.508827

Unit cell:
           periodic     x           y           z      points  spacing
  1. axis:    yes    2.859540    0.000000    0.000000    15     0.1651
  2. axis:    yes    1.429770    2.476434    0.000000    15     0.1651
  3. axis:    no     0.000000    0.000000   29.008827   175     0.1658

  Lengths:   2.859540   2.859540  29.008827
  Angles:   90.000000  90.000000  60.000000

Effective grid spacing dv^(1/3) = 0.1734

                     log10-error:    total        iterations:
           time      wfs    density  energy       fermi  poisson
iter:   1  11:25:53  +1.27   +inf   -25.046028    2             
iter:   2  11:25:55  -2.15   +inf   -25.617470    3             
iter:   3  11:25:58  -3.33   +inf   -25.621048    2             
iter:   4  11:26:01  -3.28  -0.88   -25.526919    28            
iter:   5  11:26:04  -3.45  -0.92   -25.490179    3             
iter:   6  11:26:07  -2.05  -0.94   -25.512920    33            
iter:   7  11:26:10  -2.21  -1.18   -25.466214    3             
iter:   8  11:26:13  -3.06  -1.51   -25.472203    4             
iter:   9  11:26:16  -2.71  -1.66   -25.425403    3             
iter:  10  11:26:19  -4.35  -2.17   -25.427445    3             
iter:  11  11:26:22  -3.69  -2.22   -25.425892    3             
iter:  12  11:26:25  -5.08  -2.74   -25.426132    2             
iter:  13  11:26:28  -5.50  -2.79   -25.426118    2             
iter:  14  11:26:31  -6.09  -2.96   -25.426113    2             
iter:  15  11:26:34  -6.22  -3.01   -25.426110    2             
iter:  16  11:26:37  -5.91  -3.06   -25.426169    2             
iter:  17  11:26:40  -6.41  -2.97   -25.426110    2             
iter:  18  11:26:44  -6.65  -3.18   -25.426114    2             
iter:  19  11:26:47  -6.76  -3.28   -25.426111    2             
iter:  20  11:26:50  -7.00  -3.36   -25.426124    2             
iter:  21  11:26:53  -6.83  -3.45   -25.426121    2             
iter:  22  11:26:56  -7.21  -3.53   -25.426121    2             
iter:  23  11:26:59  -7.89  -3.54   -25.426122    2             
iter:  24  11:27:02  -7.90  -3.55   -25.426117    2             
iter:  25  11:27:05  -7.50  -3.66   -25.426118    2             
iter:  26  11:27:08  -8.09  -3.77   -25.426115    2             
iter:  27  11:27:11  -7.84  -3.83   -25.426117    2             
iter:  28  11:27:14  -8.57  -3.86   -25.426117    2             
iter:  29  11:27:17  -8.85  -3.91   -25.426117    2             
iter:  30  11:27:20  -7.81  -3.89   -25.426119    2             
iter:  31  11:27:23  -7.90  -4.05   -25.426118    2             

Converged after 31 iterations.

Dipole moment: (-0.000000, -0.000000, -0.000020) |e|*Ang

Energy contributions relative to reference atoms: (reference = -46223.962854)

Kinetic:        +22.297158
Potential:      -10.547731
External:        +0.000000
XC:             -37.090381
Entropy (-ST):   -0.100042
Local:           -0.035143
--------------------------
Free energy:    -25.476139
Extrapolated:   -25.426118

Fermi level: 2.29113

Warning: Showing only first 2 kpts
 Kpt  Band  Eigenvalues  Occupancy
  0     8      0.35497    0.01562
  0     9      2.20642    0.01094
  0    10      4.00510    0.00000
  0    11      5.45520    0.00000

  1     8      0.31085    0.01562
  1     9      2.16295    0.01223
  1    10      3.96220    0.00000
  1    11      5.41135    0.00000


Timing:                              incl.     excl.
-----------------------------------------------------------
Hamiltonian:                         0.342     0.002   0.0% |
 Atomic:                             0.053     0.053   0.1% |
  XC Correction:                     0.000     0.000   0.0% |
 Calculate atomic Hamiltonians:      0.108     0.108   0.1% |
 Communicate:                        0.000     0.000   0.0% |
 Initialize Hamiltonian:             0.000     0.000   0.0% |
 Poisson:                            0.001     0.001   0.0% |
 XC 3D grid:                         0.177     0.177   0.2% |
LCAO initialization:                 8.251     0.073   0.1% |
 LCAO eigensolver:                   5.301     0.000   0.0% |
  Calculate projections:             0.001     0.001   0.0% |
  DenseAtomicCorrection:             0.003     0.003   0.0% |
  Distribute overlap matrix:         0.000     0.000   0.0% |
  Orbital Layouts:                   0.014     0.014   0.0% |
  Potential matrix:                  5.263     5.263   5.1% |-|
  Sum over cells:                    0.020     0.020   0.0% |
 LCAO to grid:                       1.155     1.155   1.1% |
 Set positions (LCAO WFS):           1.722     0.001   0.0% |
  Basic WFS set positions:           0.001     0.001   0.0% |
  Basis functions set positions:     0.000     0.000   0.0% |
  TCI: Calculate S, T, P:            1.720     1.720   1.7% ||
PWDescriptor:                        0.011     0.011   0.0% |
SCF-cycle:                          93.194     9.089   8.8% |---|
 Density:                           10.053     0.001   0.0% |
  Atomic density matrices:           0.072     0.072   0.1% |
  Mix:                               3.128     3.128   3.0% ||
  Multipole moments:                 0.007     0.007   0.0% |
  Pseudo density:                    6.846     6.466   6.3% |--|
   Symmetrize density:               0.380     0.380   0.4% |
 Hamiltonian:                        7.478     0.031   0.0% |
  Atomic:                            1.484     1.484   1.4% ||
   XC Correction:                    0.000     0.000   0.0% |
  Calculate atomic Hamiltonians:     1.120     1.120   1.1% |
  Communicate:                       0.004     0.004   0.0% |
  Poisson:                           0.029     0.029   0.0% |
  XC 3D grid:                        4.809     4.809   4.7% |-|
 Orthonormalize:                     3.350     0.008   0.0% |
  Band Layouts:                      0.010     0.001   0.0% |
   Inverse Cholesky:                 0.009     0.009   0.0% |
  calc_s_matrix:                     0.247     0.247   0.2% |
  projections:                       2.710     2.710   2.6% ||
  rotate_psi:                        0.376     0.376   0.4% |
 RMM-DIIS:                          54.585     7.993   7.8% |--|
  Calculate residuals:               9.097     9.097   8.8% |---|
  DIIS step:                        24.721     0.502   0.5% |
   Calculate residuals:             20.180    20.180  19.6% |-------|
   Construct matrix:                 0.554     0.554   0.5% |
   Linear solve:                     0.150     0.150   0.1% |
   Update trial vectors:             0.675     0.675   0.7% |
   precondition:                     2.660     2.660   2.6% ||
  Find lambda:                       0.380     0.380   0.4% |
  Update psi:                        0.224     0.224   0.2% |
  precondition:                      5.651     5.651   5.5% |-|
  projections:                       6.520     6.520   6.3% |--|
 Subspace diag:                      8.639     0.011   0.0% |
  Band Layouts:                      0.041     0.002   0.0% |
   Diagonalize:                      0.036     0.036   0.0% |
   Distribute results:               0.002     0.002   0.0% |
  calc_h_matrix:                     7.941     7.941   7.7% |--|
  rotate_psi:                        0.646     0.646   0.6% |
Set symmetry:                        0.113     0.113   0.1% |
Other:                               0.896     0.896   0.9% |
-----------------------------------------------------------
Total:                                       102.807 100.0%

Memory usage: 221.64 MiB
Date: Tue Feb  6 11:27:23 2018
