
  ___ ___ ___ _ _ _  
 |   |   |_  | | | | 
 | | | | | . | | | | 
 |__ |  _|___|_____|  1.3.0
 |___|_|             

User:   fantm@hebbe04-2
Date:   Mon Feb  5 19:16:15 2018
Arch:   x86_64
Pid:    17097
Python: 2.7.14
gpaw:   /apps/Hebbe/software/MPI/intel/2017.4.196-GCC-6.4.0-2.28/impi/2017.3.196/GPAW/1.3.0-Python-2.7.14/lib/python2.7/site-packages/gpaw
_gpaw:  /apps/Hebbe/software/MPI/intel/2017.4.196-GCC-6.4.0-2.28/impi/2017.3.196/GPAW/1.3.0-Python-2.7.14/bin/
       gpaw-python
ase:    /apps/Hebbe/software/MPI/intel/2017.4.196-GCC-6.4.0-2.28/impi/2017.3.196/ASE/3.15.0-Python-2.7.14/lib/python2.7/site-packages/ase-3.15.0-py2.7.egg/ase (version 3.15.0)
numpy:  /apps/Hebbe/software/MPI/intel/2017.4.196-GCC-6.4.0-2.28/impi/2017.3.196/Python/2.7.14/lib/python2.7/site-packages/numpy-1.13.1-py2.7-linux-x86_64.egg/numpy (version 1.13.1)
scipy:  /apps/Hebbe/software/MPI/intel/2017.4.196-GCC-6.4.0-2.28/impi/2017.3.196/Python/2.7.14/lib/python2.7/site-packages/scipy-0.19.1-py2.7-linux-x86_64.egg/scipy (version 0.19.1)
units:  Angstrom and eV
cores:  12

Input parameters:
  basis: dzp
  eigensolver: rmm-diis
  kpts: [16 16  1]
  mode: {ecut: 650.0,
         name: pw}
  xc: PBE

System changes: positions, numbers, cell, pbc, initial_charges, initial_magmoms 

Initialize ...

Al-setup:
  name: Aluminium
  id: 0292cae29f5d6237e50f6abdd43a7bdd
  Z: 13
  valence: 3
  core: 10
  charge: 0.0
  file: /c3se/apps/Glenn/gpaw/gpaw-setups-0.9.11271/Al.PBE.gz
  cutoffs: 1.08(comp), 1.91(filt), 2.36(core), lmax=2
  valence states:
                energy  radius
    3s(2.00)    -7.753   1.085
    3p(1.00)    -2.712   1.085
    *s          19.459   1.085
    *p          24.499   1.085
    *d           0.000   1.085

  LCAO basis set for Al:
    Name: dzp
    File: /c3se/apps/Glenn/gpaw/gpaw-setups-0.9.11271/Al.dzp.basis.gz
    Number of radial functions: 5
    Number of spherical harmonics: 13
      l=0, rc=7.8750 Bohr: 3s-sz confined orbital
      l=1, rc=10.4219 Bohr: 3p-sz confined orbital
      l=0, rc=4.6094 Bohr: 3s-dz split-valence wave
      l=1, rc=6.2812 Bohr: 3p-dz split-valence wave
      l=2, rc=10.4219 Bohr: d-type Gaussian polarization

Reference energy: -112258.195503

Spin-paired calculation

Occupation numbers:
  Fermi-Dirac: width=0.1000 eV

Convergence criteria:
  Maximum total energy change: 0.0005 eV / electron
  Maximum integral of absolute density change: 0.0001 electrons
  Maximum integral of absolute eigenstate change: 4e-08 eV^2
  Maximum number of iterations: 333

Symmetries present (total): 6

  ( 1  0  0)  ( 1 -1  0)  ( 0  1  0)  ( 0 -1  0)  (-1  1  0)  (-1  0  0)
  ( 0  1  0)  ( 0 -1  0)  ( 1  0  0)  ( 1 -1  0)  (-1  0  0)  (-1  1  0)
  ( 0  0  1)  ( 0  0  1)  ( 0  0  1)  ( 0  0  1)  ( 0  0  1)  ( 0  0  1)
Note: your k-points are not as symmetric as your crystal!

256 k-points: 16 x 16 x 1 Monkhorst-Pack grid
72 k-points in the irreducible part of the Brillouin zone
       k-points in crystal coordinates                weights
   0:     0.03125000   -0.03125000    0.00000000          2/256
   1:     0.03125000    0.03125000    0.00000000          2/256
   2:     0.09375000   -0.09375000    0.00000000          2/256
   3:     0.09375000   -0.03125000    0.00000000          4/256
   4:     0.09375000    0.03125000    0.00000000          4/256
   5:     0.09375000    0.09375000    0.00000000          2/256
   6:     0.15625000   -0.15625000    0.00000000          2/256
   7:     0.15625000   -0.09375000    0.00000000          4/256
   8:     0.15625000   -0.03125000    0.00000000          4/256
   9:     0.15625000    0.03125000    0.00000000          4/256
          ...
  71:     0.46875000    0.46875000    0.00000000          2/256

Wave functions: Plane wave expansion
  Cutoff energy: 650.000 eV
  Number of coefficients (min, max): 13738, 14030
  Using FFTW library
  Eigensolver: None  MatrixOperator buffer_size: default value or 
                              see value of nblock in input file
Diagonalizer layout: Serial LAPACKOrthonormalizer layout: Serial LAPACK 

RMM-DIIS eigensolver
       keep_htpsit: True
       Block size: 10
       DIIS iterations: 3
       Threshold for DIIS: 1.0e-16
       Limit lambda: False
       use_rayleigh: False
       trial_step: 0.1 

Densities:
  Coarse grid: 15*15*315 grid
  Fine grid: 30*30*630 grid
  Total Charge: 0.000000 

Density mixing:
  Method: separate
  Backend: pulay
  Linear mixing parameter: 0.05
  Mixing with 5 old densities
  Damping of long wave oscillations: 50 

Hamiltonian:
  XC and Coulomb potentials evaluated on a 30*30*630 grid
  Using the PBE Exchange-Correlation functional
 

Memory estimate:
  Process memory now: 434.54 MiB
  Calculator: 170.76 MiB
    Density: 29.90 MiB
      Arrays: 14.06 MiB
      Localized functions: 10.44 MiB
      Mixer: 5.41 MiB
    Hamiltonian: 9.41 MiB
      Arrays: 9.19 MiB
      XC: 0.00 MiB
      Poisson: 0.00 MiB
      vbar: 0.21 MiB
    Wavefunctions: 131.45 MiB
      Arrays psit_nG: 87.34 MiB
      Eigensolver: 15.63 MiB
      Projections: 1.38 MiB
      Projectors: 8.82 MiB
      Overlap op: 14.63 MiB
      PW-descriptor: 3.65 MiB

Total number of cores used: 12
Parallelization over k-points: 12

Number of atoms: 17
Number of atomic orbitals: 221
Number of bands in calculation: 68
Bands to converge: occupied states only
Number of valence electrons: 51

... initialized

Initializing position-dependent things.

Density initialized from atomic densities
Creating initial wave functions:
  68 bands from LCAO basis set

                    
                    
                    
                    
       Al           
                    
        Al          
                    
                    
                    
           Al       
                    
                    
       Al           
                    
        Al          
                    
                    
           Al       
                    
                    
                    
       Al           
                    
        Al          
                    
                    
           Al       
                    
                    
       Al           
                    
        Al          
                    
                    
                    
           Al       
                    
                    
       Al           
                    
        Al          
                    
                    
           Al       
                    
                    
                    
       Al           
                    
        Al          
                    
                    
                    
                    

Positions:
   0 Al     0.000000    1.649323    7.500000
   1 Al     0.000000    0.000000    9.832495
   2 Al     1.428356    0.824662   12.164990
   3 Al     0.000000    1.649323   14.497485
   4 Al     0.000000    0.000000   16.829980
   5 Al     1.428356    0.824662   19.162475
   6 Al     0.000000    1.649323   21.494971
   7 Al     0.000000    0.000000   23.827466
   8 Al     1.428356    0.824662   26.159961
   9 Al     0.000000    1.649323   28.492456
  10 Al     0.000000    0.000000   30.824951
  11 Al     1.428356    0.824662   33.157446
  12 Al     0.000000    1.649323   35.489941
  13 Al     0.000000    0.000000   37.822436
  14 Al     1.428356    0.824662   40.154931
  15 Al     0.000000    1.649323   42.487426
  16 Al     0.000000    0.000000   44.819921

Unit cell:
           periodic     x           y           z      points  spacing
  1. axis:    yes    2.856711    0.000000    0.000000    15     0.1649
  2. axis:    yes    1.428356    2.473985    0.000000    15     0.1649
  3. axis:    no     0.000000    0.000000   52.319921   315     0.1661

  Lengths:   2.856711   2.856711  52.319921
  Angles:   90.000000  90.000000  60.000000

Effective grid spacing dv^(1/3) = 0.1734

                     log10-error:    total        iterations:
           time      wfs    density  energy       fermi  poisson
iter:   1  19:17:01  +1.29   +inf   -61.609936    2             
iter:   2  19:17:17  -2.30   +inf   -62.996953    3             
iter:   3  19:17:34  -3.43   +inf   -63.003068    2             
iter:   4  19:17:52  -3.33  -0.90   -64.540015    34            
iter:   5  19:18:11  -3.39  -0.87   -65.098172    34            
iter:   6  19:18:29  -3.19  -0.83   -63.514252    3             
iter:   7  19:18:48  -2.41  -0.95   -62.949683    3             
iter:   8  19:19:07  -2.52  -1.20   -63.004596    3             
iter:   9  19:19:25  -3.06  -1.46   -62.880470    3             
iter:  10  19:19:43  -3.74  -1.75   -62.833937    3             
iter:  11  19:20:02  -3.69  -1.95   -62.814592    2             
iter:  12  19:20:20  -4.94  -2.14   -62.872445    3             
iter:  13  19:20:39  -4.33  -1.76   -62.872780    2             
iter:  14  19:20:58  -5.38  -1.75   -62.816933    2             
iter:  15  19:21:16  -4.63  -2.14   -62.806779    2             
iter:  16  19:21:35  -5.44  -2.54   -62.806992    2             
iter:  17  19:21:53  -6.05  -2.55   -62.806991    2             
iter:  18  19:22:12  -5.33  -2.59   -62.818297    3             
iter:  19  19:22:30  -5.84  -2.12   -62.808812    3             
iter:  20  19:22:49  -6.58  -2.44   -62.809240    2             
iter:  21  19:23:07  -6.17  -2.41   -62.806655    2             
iter:  22  19:23:25  -6.64  -2.76   -62.806683    2             
iter:  23  19:23:44  -6.33  -2.77   -62.806899    2             
iter:  24  19:24:02  -6.21  -2.73   -62.807548    2             
iter:  25  19:24:21  -5.85  -2.63   -62.814343    3             
iter:  26  19:24:39  -5.99  -2.23   -62.819572    2             
iter:  27  19:24:58  -6.04  -2.10   -62.806553    2             
iter:  28  19:25:17  -6.87  -2.95   -62.806503    2             
iter:  29  19:25:35  -6.81  -3.00   -62.806615    2             
iter:  30  19:25:54  -7.17  -2.95   -62.806435    2             
iter:  31  19:26:12  -7.02  -3.03   -62.807378    2             
iter:  32  19:26:31  -6.99  -2.69   -62.807893    2             
iter:  33  19:26:49  -7.08  -2.58   -62.806426    2             
iter:  34  19:27:08  -7.19  -3.10   -62.806395    2             
iter:  35  19:27:26  -7.09  -3.16   -62.806456    2             
iter:  36  19:27:45  -7.30  -3.10   -62.806593    2             
iter:  37  19:28:04  -6.88  -3.00   -62.807410    2             
iter:  38  19:28:22  -7.03  -2.66   -62.807558    2             
iter:  39  19:28:41  -7.08  -2.61   -62.806522    2             
