
  ___ ___ ___ _ _ _  
 |   |   |_  | | | | 
 | | | | | . | | | | 
 |__ |  _|___|_____|  1.3.0
 |___|_|             

User:   edenborg@hebbe14-7
Date:   Tue Feb  6 13:05:20 2018
Arch:   x86_64
Pid:    4521
Python: 2.7.14
gpaw:   /apps/Hebbe/software/MPI/intel/2017.4.196-GCC-6.4.0-2.28/impi/2017.3.196/GPAW/1.3.0-Python-2.7.14/lib/python2.7/site-packages/gpaw
_gpaw:  /apps/Hebbe/software/MPI/intel/2017.4.196-GCC-6.4.0-2.28/impi/2017.3.196/GPAW/1.3.0-Python-2.7.14/bin/
       gpaw-python
ase:    /c3se/users/edenborg/Hebbe/ase/ase (version 3.15.1b1)
numpy:  /apps/Hebbe/software/MPI/intel/2017.4.196-GCC-6.4.0-2.28/impi/2017.3.196/Python/2.7.14/lib/python2.7/site-packages/numpy-1.13.1-py2.7-linux-x86_64.egg/numpy (version 1.13.1)
scipy:  /apps/Hebbe/software/MPI/intel/2017.4.196-GCC-6.4.0-2.28/impi/2017.3.196/Python/2.7.14/lib/python2.7/site-packages/scipy-0.19.1-py2.7-linux-x86_64.egg/scipy (version 0.19.1)
units:  Angstrom and eV
cores:  12

Input parameters:
  basis: dzp
  eigensolver: rmm-diis
  kpts: [16 16  1]
  mode: {ecut: 650.0,
         name: pw}
  xc: PBE

System changes: positions, numbers, cell, pbc, initial_charges, initial_magmoms 

Initialize ...

Al-setup:
  name: Aluminium
  id: 0292cae29f5d6237e50f6abdd43a7bdd
  Z: 13
  valence: 3
  core: 10
  charge: 0.0
  file: /c3se/apps/Glenn/gpaw/gpaw-setups-0.9.11271/Al.PBE.gz
  cutoffs: 1.08(comp), 1.91(filt), 2.36(core), lmax=2
  valence states:
                energy  radius
    3s(2.00)    -7.753   1.085
    3p(1.00)    -2.712   1.085
    *s          19.459   1.085
    *p          24.499   1.085
    *d           0.000   1.085

  LCAO basis set for Al:
    Name: dzp
    File: /c3se/apps/Glenn/gpaw/gpaw-setups-0.9.11271/Al.dzp.basis.gz
    Number of radial functions: 5
    Number of spherical harmonics: 13
      l=0, rc=7.8750 Bohr: 3s-sz confined orbital
      l=1, rc=10.4219 Bohr: 3p-sz confined orbital
      l=0, rc=4.6094 Bohr: 3s-dz split-valence wave
      l=1, rc=6.2812 Bohr: 3p-dz split-valence wave
      l=2, rc=10.4219 Bohr: d-type Gaussian polarization

Reference energy: -138671.888563

Spin-paired calculation

Occupation numbers:
  Fermi-Dirac: width=0.1000 eV

Convergence criteria:
  Maximum total energy change: 0.0005 eV / electron
  Maximum integral of absolute density change: 0.0001 electrons
  Maximum integral of absolute eigenstate change: 4e-08 eV^2
  Maximum number of iterations: 333

Symmetries present (total): 6

  ( 1  0  0)  ( 1 -1  0)  ( 0  1  0)  ( 0 -1  0)  (-1  1  0)  (-1  0  0)
  ( 0  1  0)  ( 0 -1  0)  ( 1  0  0)  ( 1 -1  0)  (-1  0  0)  (-1  1  0)
  ( 0  0  1)  ( 0  0  1)  ( 0  0  1)  ( 0  0  1)  ( 0  0  1)  ( 0  0  1)
Note: your k-points are not as symmetric as your crystal!

256 k-points: 16 x 16 x 1 Monkhorst-Pack grid
72 k-points in the irreducible part of the Brillouin zone
       k-points in crystal coordinates                weights
   0:     0.03125000   -0.03125000    0.00000000          2/256
   1:     0.03125000    0.03125000    0.00000000          2/256
   2:     0.09375000   -0.09375000    0.00000000          2/256
   3:     0.09375000   -0.03125000    0.00000000          4/256
   4:     0.09375000    0.03125000    0.00000000          4/256
   5:     0.09375000    0.09375000    0.00000000          2/256
   6:     0.15625000   -0.15625000    0.00000000          2/256
   7:     0.15625000   -0.09375000    0.00000000          4/256
   8:     0.15625000   -0.03125000    0.00000000          4/256
   9:     0.15625000    0.03125000    0.00000000          4/256
          ...
  71:     0.46875000    0.46875000    0.00000000          2/256

Wave functions: Plane wave expansion
  Cutoff energy: 650.000 eV
  Number of coefficients (min, max): 16235, 16582
  Using FFTW library
  Eigensolver: None  MatrixOperator buffer_size: default value or 
                              see value of nblock in input file
Diagonalizer layout: Serial LAPACKOrthonormalizer layout: Serial LAPACK 

RMM-DIIS eigensolver
       keep_htpsit: True
       Block size: 10
       DIIS iterations: 3
       Threshold for DIIS: 1.0e-16
       Limit lambda: False
       use_rayleigh: False
       trial_step: 0.1 

Densities:
  Coarse grid: 15*15*375 grid
  Fine grid: 30*30*750 grid
  Total Charge: 0.000000 

Density mixing:
  Method: separate
  Backend: pulay
  Linear mixing parameter: 0.05
  Mixing with 5 old densities
  Damping of long wave oscillations: 50 

Hamiltonian:
  XC and Coulomb potentials evaluated on a 30*30*750 grid
  Using the PBE Exchange-Correlation functional
 

Memory estimate:
  Process memory now: 558.79 MiB
  Calculator: 234.92 MiB
    Density: 35.46 MiB
      Arrays: 16.74 MiB
      Localized functions: 12.29 MiB
      Mixer: 6.44 MiB
    Hamiltonian: 11.20 MiB
      Arrays: 10.94 MiB
      XC: 0.00 MiB
      Poisson: 0.00 MiB
      vbar: 0.25 MiB
    Wavefunctions: 188.26 MiB
      Arrays psit_nG: 127.52 MiB
      Eigensolver: 22.52 MiB
      Projections: 2.10 MiB
      Projectors: 10.43 MiB
      Overlap op: 21.36 MiB
      PW-descriptor: 4.34 MiB

Total number of cores used: 12
Parallelization over k-points: 12

Number of atoms: 21
Number of atomic orbitals: 273
Number of bands in calculation: 84
Bands to converge: occupied states only
Number of valence electrons: 63

... initialized

Initializing position-dependent things.

Density initialized from atomic densities
Creating initial wave functions:
  84 bands from LCAO basis set

                    
                    
                    
                    
       Al           
                    
        Al          
                    
                    
                    
           Al       
                    
                    
       Al           
                    
        Al          
                    
                    
           Al       
                    
                    
                    
       Al           
        Al          
                    
                    
                    
           Al       
                    
                    
       Al           
                    
        Al          
                    
                    
           Al       
                    
                    
                    
       Al           
                    
        Al          
                    
                    
           Al       
                    
                    
       Al           
                    
        Al          
                    
                    
           Al       
                    
                    
                    
       Al           
                    
        Al          
                    
                    
           Al       
                    
                    
                    
                    

Positions:
   0 Al     1.429770    0.825478    7.500000
   1 Al     0.000000    1.650956    9.834804
   2 Al     0.000000    0.000000   12.169609
   3 Al     1.429770    0.825478   14.504413
   4 Al     0.000000    1.650956   16.839218
   5 Al     0.000000    0.000000   19.174022
   6 Al     1.429770    0.825478   21.508827
   7 Al     0.000000    1.650956   23.843631
   8 Al     0.000000    0.000000   26.178436
   9 Al     1.429770    0.825478   28.513240
  10 Al     0.000000    1.650956   30.848045
  11 Al     0.000000    0.000000   33.182849
  12 Al     1.429770    0.825478   35.517654
  13 Al     0.000000    1.650956   37.852458
  14 Al     0.000000    0.000000   40.187263
  15 Al     1.429770    0.825478   42.522067
  16 Al     0.000000    1.650956   44.856872
  17 Al     0.000000    0.000000   47.191676
  18 Al     1.429770    0.825478   49.526481
  19 Al     0.000000    1.650956   51.861285
  20 Al     0.000000    0.000000   54.196090

Unit cell:
           periodic     x           y           z      points  spacing
  1. axis:    yes    2.859540    0.000000    0.000000    15     0.1651
  2. axis:    yes    1.429770    2.476434    0.000000    15     0.1651
  3. axis:    no     0.000000    0.000000   61.696090   375     0.1645

  Lengths:   2.859540   2.859540  61.696090
  Angles:   90.000000  90.000000  60.000000

Effective grid spacing dv^(1/3) = 0.1730

                     log10-error:    total        iterations:
           time      wfs    density  energy       fermi  poisson
iter:   1  13:06:29  +1.29   +inf   -76.242360    3             
iter:   2  13:06:58  -2.33   +inf   -77.943080    3             
iter:   3  13:07:27  -3.45   +inf   -77.950054    2             
iter:   4  13:07:58  -3.33  -0.91   -81.126038    34            
iter:   5  13:08:30  -3.33  -0.83   -83.196744    34            
iter:   6  13:09:01  -3.22  -0.76   -80.035845    3             
iter:   7  13:09:33  -2.67  -0.87   -78.269719    3             
iter:   8  13:10:05  -2.44  -1.09   -78.154071    3             
iter:   9  13:10:37  -3.14  -1.34   -77.994667    2             
iter:  10  13:11:09  -3.33  -1.56   -79.307613    3             
iter:  11  13:11:40  -3.93  -1.14   -78.362190    35            
iter:  12  13:12:12  -4.00  -1.33   -78.005432    3             
iter:  13  13:12:44  -4.14  -1.51   -77.787899    2             
iter:  14  13:13:15  -4.46  -1.97   -77.913063    2             
iter:  15  13:13:47  -4.94  -1.61   -77.964640    2             
iter:  16  13:14:18  -4.83  -1.55   -77.769275    3             
iter:  17  13:14:50  -4.52  -2.12   -78.186759    3             
iter:  18  13:15:21  -4.68  -1.40   -77.764556    3             
iter:  19  13:15:53  -5.37  -2.12   -77.769863    2             
iter:  20  13:16:25  -5.01  -2.08   -77.760773    2             
iter:  21  13:16:56  -5.29  -2.22   -77.801812    2             
iter:  22  13:17:28  -5.67  -1.86   -77.757770    2             
iter:  23  13:17:59  -5.60  -2.31   -77.827460    3             
iter:  24  13:18:31  -5.53  -1.77   -77.756479    3             
iter:  25  13:19:03  -5.40  -2.36   -77.758294    2             
iter:  26  13:19:34  -6.03  -2.32   -77.759629    2             
iter:  27  13:20:06  -5.93  -2.30   -77.793069    2             
iter:  28  13:20:38  -5.75  -1.90   -77.755173    2             
iter:  29  13:21:09  -5.88  -2.50   -77.764168    3             
iter:  30  13:21:40  -5.68  -2.21   -77.772129    3             
iter:  31  13:22:12  -5.79  -2.08   -77.754347    3             
iter:  32  13:22:44  -6.48  -2.62   -77.756641    2             
iter:  33  13:23:16  -5.94  -2.46   -77.796276    2             
iter:  34  13:23:48  -6.09  -1.89   -77.754988    2             
iter:  35  13:24:20  -6.63  -2.59   -77.755407    2             
iter:  36  13:24:51  -6.37  -2.55   -77.762481    3             
iter:  37  13:25:23  -6.65  -2.25   -77.754341    2             
iter:  38  13:25:54  -7.20  -2.69   -77.754904    2             
iter:  39  13:26:26  -6.28  -2.63   -77.782671    2             
iter:  40  13:26:57  -6.33  -1.97   -77.754229    2             
iter:  41  13:27:29  -7.21  -2.74   -77.754794    2             
iter:  42  13:28:00  -6.49  -2.67   -77.759906    3             
iter:  43  13:28:32  -6.66  -2.30   -77.753945    2             
iter:  44  13:29:03  -7.43  -2.83   -77.754000    2             
iter:  45  13:29:35  -6.61  -2.82   -77.768322    2             
iter:  46  13:30:06  -6.60  -2.12   -77.753920    2             
iter:  47  13:30:38  -7.60  -2.85   -77.753882    2             
iter:  48  13:31:10  -6.87  -2.87   -77.758088    2             
iter:  49  13:31:41  -6.97  -2.41   -77.753891    2             
iter:  50  13:32:13  -7.62  -2.88   -77.753897    2             
iter:  51  13:32:44  -6.85  -2.90   -77.761919    2             
iter:  52  13:33:16  -6.78  -2.24   -77.753922    2             
iter:  53  13:33:47  -7.68  -2.89   -77.754029    2             
iter:  54  13:34:19  -7.05  -2.87   -77.756120    2             
iter:  55  13:34:50  -7.05  -2.51   -77.753918    2             
iter:  56  13:35:22  -7.69  -2.93   -77.753831    2             
iter:  57  13:35:54  -7.09  -2.97   -77.758062    2             
iter:  58  13:36:26  -6.94  -2.39   -77.754055    2             
iter:  59  13:36:57  -7.64  -2.89   -77.753919    2             
iter:  60  13:37:29  -7.21  -2.95   -77.755686    2             
iter:  61  13:38:01  -7.23  -2.59   -77.753862    2             
iter:  62  13:38:32  -7.74  -2.98   -77.753781    2             
iter:  63  13:39:04  -7.33  -3.06   -77.755969    2             
iter:  64  13:39:35  -7.14  -2.52   -77.754014    2             
iter:  65  13:40:07  -7.58  -2.91   -77.754065    2             
iter:  66  13:40:39  -7.38  -2.92   -77.754743    2             
iter:  67  13:41:11  -7.33  -2.69   -77.753955    2             
iter:  68  13:41:42  -7.81  -3.00   -77.753855    2             
iter:  69  13:42:14  -7.65  -3.06   -77.754782    2             
iter:  70  13:42:45  -7.40  -2.70   -77.754059    2             
iter:  71  13:43:17  -7.55  -2.94   -77.754014    2             
iter:  72  13:43:49  -7.43  -2.96   -77.754552    2             
iter:  73  13:44:20  -7.51  -2.79   -77.753819    2             
iter:  74  13:44:52  -7.85  -3.09   -77.753773    2             
iter:  75  13:45:24  -7.89  -3.17   -77.754175    2             
iter:  76  13:45:56  -7.73  -2.87   -77.753850    2             
iter:  77  13:46:27  -7.73  -3.09   -77.753990    2             
iter:  78  13:46:59  -7.82  -3.01   -77.753938    2             
iter:  79  13:47:31  -7.81  -2.99   -77.753845    2             
iter:  80  13:48:03  -8.04  -3.17   -77.753825    2             
iter:  81  13:48:35  -8.20  -3.19   -77.753959    2             
iter:  82  13:49:07  -8.09  -3.02   -77.753812    2             
iter:  83  13:49:39  -7.96  -3.22   -77.753845    2             
iter:  84  13:50:10  -8.03  -3.13   -77.753909    2             
iter:  85  13:50:42  -8.14  -3.12   -77.753740    2             
iter:  86  13:51:14  -8.23  -3.31   -77.753756    2             
iter:  87  13:51:45  -8.33  -3.30   -77.753840    2             
iter:  88  13:52:17  -8.42  -3.15   -77.753741    2             
iter:  89  13:52:49  -8.28  -3.39   -77.753825    2             
iter:  90  13:53:21  -8.39  -3.23   -77.753743    2             
iter:  91  13:53:53  -8.47  -3.31   -77.753767    2             
iter:  92  13:54:25  -8.49  -3.39   -77.753777    2             
iter:  93  13:54:57  -8.46  -3.35   -77.753807    2             
iter:  94  13:55:29  -8.64  -3.23   -77.753738    2             
iter:  95  13:56:01  -8.47  -3.48   -77.753760    2             
iter:  96  13:56:33  -8.46  -3.33   -77.753794    2             
iter:  97  13:57:05  -8.68  -3.34   -77.753729    2             
iter:  98  13:57:37  -8.74  -3.48   -77.753743    2             
iter:  99  13:58:09  -8.52  -3.44   -77.753795    2             
iter: 100  13:58:41  -8.75  -3.28   -77.753736    2             
iter: 101  13:59:12  -8.60  -3.54   -77.753794    2             
iter: 102  13:59:44  -8.44  -3.35   -77.753739    2             
iter: 103  14:00:16  -8.70  -3.38   -77.753751    2             
iter: 104  14:00:48  -8.83  -3.49   -77.753753    2             
iter: 105  14:01:20  -8.49  -3.48   -77.753785    2             
iter: 106  14:01:52  -8.74  -3.28   -77.753727    1             
iter: 107  14:02:23  -8.71  -3.61   -77.753744    2             
iter: 108  14:02:55  -8.46  -3.45   -77.753806    2             
iter: 109  14:03:27  -8.71  -3.33   -77.753736    2             
iter: 110  14:03:59  -8.95  -3.54   -77.753738    2             
iter: 111  14:04:31  -8.55  -3.56   -77.753805    2             
iter: 112  14:05:03  -8.73  -3.28   -77.753739    1             
iter: 113  14:05:35  -8.89  -3.63   -77.753761    2             
iter: 114  14:06:07  -8.46  -3.52   -77.753749    2             
iter: 115  14:06:39  -8.65  -3.34   -77.753750    2             
iter: 116  14:07:11  -8.95  -3.53   -77.753738    2             
iter: 117  14:07:42  -8.56  -3.65   -77.753792    2             
iter: 118  14:08:14  -8.70  -3.26   -77.753725    2             
iter: 119  14:08:46  -9.15  -3.72   -77.753726    2             
iter: 120  14:09:18  -8.71  -3.69   -77.753792    2             
iter: 121  14:09:49  -8.82  -3.39   -77.753731    2             
iter: 122  14:10:21  -9.22  -3.65   -77.753727    2             
iter: 123  14:10:53  -8.80  -3.79   -77.753788    2             
iter: 124  14:11:25  -8.83  -3.34   -77.753734    2             
iter: 125  14:11:57  -9.45  -3.76   -77.753736    2             
iter: 126  14:12:29  -8.90  -3.76   -77.753729    2             
iter: 127  14:13:01  -8.97  -3.50   -77.753735    2             
iter: 128  14:13:32  -9.45  -3.74   -77.753727    2             
iter: 129  14:14:04  -9.06  -3.90   -77.753751    2             
iter: 130  14:14:36  -9.00  -3.45   -77.753724    2             
iter: 131  14:15:08  -9.63  -3.85   -77.753724    2             
iter: 132  14:15:40  -9.24  -3.90   -77.753754    2             
iter: 133  14:16:12  -9.28  -3.61   -77.753724    2             
iter: 134  14:16:44  -9.75  -3.90   -77.753724    2             
iter: 135  14:17:15  -9.39  -4.03   -77.753745    2             

Converged after 135 iterations.

Dipole moment: (-0.044496, -0.025690, -0.000349) |e|*Ang

Energy contributions relative to reference atoms: (reference = -138671.888563)

Kinetic:        +72.811818
Potential:      -34.479569
External:        +0.000000
XC:            -115.797735
Entropy (-ST):   -0.286452
Local:           -0.145033
--------------------------
Free energy:    -77.896971
Extrapolated:   -77.753745

Fermi level: 4.85755

Warning: Showing only first 2 kpts
 Kpt  Band  Eigenvalues  Occupancy
  0    29      6.12912    0.00000
  0    30      6.84811    0.00000
  0    31      7.54329    0.00000
  0    32      8.14316    0.00000

  1    29      6.08718    0.00000
  1    30      6.80664    0.00000
  1    31      7.50208    0.00000
  1    32      8.10102    0.00000


Timing:                              incl.     excl.
-----------------------------------------------------------
Hamiltonian:                         0.800     0.002   0.0% |
 Atomic:                             0.105     0.057   0.0% |
  XC Correction:                     0.047     0.047   0.0% |
 Calculate atomic Hamiltonians:      0.308     0.308   0.0% |
 Communicate:                        0.000     0.000   0.0% |
 Initialize Hamiltonian:             0.000     0.000   0.0% |
 Poisson:                            0.003     0.003   0.0% |
 XC 3D grid:                         0.382     0.382   0.0% |
LCAO initialization:                34.010     0.073   0.0% |
 LCAO eigensolver:                  18.437     0.001   0.0% |
  Calculate projections:             0.013     0.013   0.0% |
  DenseAtomicCorrection:             0.036     0.036   0.0% |
  Distribute overlap matrix:         0.003     0.003   0.0% |
  Orbital Layouts:                   0.197     0.197   0.0% |
  Potential matrix:                 18.040    18.040   0.4% |
  Sum over cells:                    0.146     0.146   0.0% |
 LCAO to grid:                       9.435     9.435   0.2% |
 Set positions (LCAO WFS):           6.066     0.003   0.0% |
  Basic WFS set positions:           0.003     0.003   0.0% |
  Basis functions set positions:     0.000     0.000   0.0% |
  TCI: Calculate S, T, P:            6.060     6.060   0.1% |
PWDescriptor:                        0.021     0.021   0.0% |
SCF-cycle:                        4278.863   422.909   9.8% |---|
 Density:                          285.219     0.003   0.0% |
  Atomic density matrices:           1.024     1.024   0.0% |
  Mix:                              87.464    87.464   2.0% ||
  Multipole moments:                 0.070     0.070   0.0% |
  Pseudo density:                  196.658   192.831   4.5% |-|
   Symmetrize density:               3.827     3.827   0.1% |
 Hamiltonian:                       91.864     0.281   0.0% |
  Atomic:                           13.766     7.527   0.2% |
   XC Correction:                    6.239     6.239   0.1% |
  Calculate atomic Hamiltonians:    28.512    28.512   0.7% |
  Communicate:                       0.030     0.030   0.0% |
  Poisson:                           0.276     0.276   0.0% |
  XC 3D grid:                       49.000    49.000   1.1% |
 Orthonormalize:                   151.322     0.042   0.0% |
  Band Layouts:                      0.166     0.007   0.0% |
   Inverse Cholesky:                 0.160     0.160   0.0% |
  calc_s_matrix:                    13.835    13.835   0.3% |
  projections:                     114.893   114.893   2.7% ||
  rotate_psi:                       22.387    22.387   0.5% |
 RMM-DIIS:                        3042.722   223.443   5.2% |-|
  Calculate residuals:             688.278   688.278  15.9% |-----|
  DIIS step:                      1431.632    14.319   0.3% |
   Calculate residuals:           1313.191  1313.191  30.4% |-----------|
   Construct matrix:                12.455    12.455   0.3% |
   Linear solve:                     1.920     1.920   0.0% |
   Update trial vectors:            18.048    18.048   0.4% |
   precondition:                    71.698    71.698   1.7% ||
  Find lambda:                       9.129     9.129   0.2% |
  Update psi:                        7.133     7.133   0.2% |
  precondition:                    150.076   150.076   3.5% ||
  projections:                     533.031   533.031  12.4% |----|
 Subspace diag:                    284.827     0.080   0.0% |
  Band Layouts:                      1.067     0.013   0.0% |
   Diagonalize:                      1.041     1.041   0.0% |
   Distribute results:               0.013     0.013   0.0% |
  calc_h_matrix:                   236.726   236.726   5.5% |-|
  rotate_psi:                       46.954    46.954   1.1% |
Set symmetry:                        0.111     0.111   0.0% |
Other:                               2.064     2.064   0.0% |
-----------------------------------------------------------
Total:                                      4315.869 100.0%

Memory usage: 631.44 MiB
Date: Tue Feb  6 14:17:15 2018
