
  ___ ___ ___ _ _ _  
 |   |   |_  | | | | 
 | | | | | . | | | | 
 |__ |  _|___|_____|  1.3.0
 |___|_|             

User:   fantm@hebbe07-3
Date:   Mon Feb  5 19:37:23 2018
Arch:   x86_64
Pid:    15869
Python: 2.7.14
gpaw:   /apps/Hebbe/software/MPI/intel/2017.4.196-GCC-6.4.0-2.28/impi/2017.3.196/GPAW/1.3.0-Python-2.7.14/lib/python2.7/site-packages/gpaw
_gpaw:  /apps/Hebbe/software/MPI/intel/2017.4.196-GCC-6.4.0-2.28/impi/2017.3.196/GPAW/1.3.0-Python-2.7.14/bin/
       gpaw-python
ase:    /apps/Hebbe/software/MPI/intel/2017.4.196-GCC-6.4.0-2.28/impi/2017.3.196/ASE/3.15.0-Python-2.7.14/lib/python2.7/site-packages/ase-3.15.0-py2.7.egg/ase (version 3.15.0)
numpy:  /apps/Hebbe/software/MPI/intel/2017.4.196-GCC-6.4.0-2.28/impi/2017.3.196/Python/2.7.14/lib/python2.7/site-packages/numpy-1.13.1-py2.7-linux-x86_64.egg/numpy (version 1.13.1)
scipy:  /apps/Hebbe/software/MPI/intel/2017.4.196-GCC-6.4.0-2.28/impi/2017.3.196/Python/2.7.14/lib/python2.7/site-packages/scipy-0.19.1-py2.7-linux-x86_64.egg/scipy (version 0.19.1)
units:  Angstrom and eV
cores:  12

Input parameters:
  basis: dzp
  eigensolver: rmm-diis
  kpts: [16 16  1]
  mode: {ecut: 650.0,
         name: pw}
  xc: PBE

System changes: positions, numbers, cell, pbc, initial_charges, initial_magmoms 

Initialize ...

Al-setup:
  name: Aluminium
  id: 0292cae29f5d6237e50f6abdd43a7bdd
  Z: 13
  valence: 3
  core: 10
  charge: 0.0
  file: /c3se/apps/Glenn/gpaw/gpaw-setups-0.9.11271/Al.PBE.gz
  cutoffs: 1.08(comp), 1.91(filt), 2.36(core), lmax=2
  valence states:
                energy  radius
    3s(2.00)    -7.753   1.085
    3p(1.00)    -2.712   1.085
    *s          19.459   1.085
    *p          24.499   1.085
    *d           0.000   1.085

  LCAO basis set for Al:
    Name: dzp
    File: /c3se/apps/Glenn/gpaw/gpaw-setups-0.9.11271/Al.dzp.basis.gz
    Number of radial functions: 5
    Number of spherical harmonics: 13
      l=0, rc=7.8750 Bohr: 3s-sz confined orbital
      l=1, rc=10.4219 Bohr: 3p-sz confined orbital
      l=0, rc=4.6094 Bohr: 3s-dz split-valence wave
      l=1, rc=6.2812 Bohr: 3p-dz split-valence wave
      l=2, rc=10.4219 Bohr: d-type Gaussian polarization

Reference energy: -72637.655914

Spin-paired calculation

Occupation numbers:
  Fermi-Dirac: width=0.1000 eV

Convergence criteria:
  Maximum total energy change: 0.0005 eV / electron
  Maximum integral of absolute density change: 0.0001 electrons
  Maximum integral of absolute eigenstate change: 4e-08 eV^2
  Maximum number of iterations: 333

Symmetries present (total): 6

  ( 1  0  0)  ( 1 -1  0)  ( 0  1  0)  ( 0 -1  0)  (-1  1  0)  (-1  0  0)
  ( 0  1  0)  ( 0 -1  0)  ( 1  0  0)  ( 1 -1  0)  (-1  0  0)  (-1  1  0)
  ( 0  0  1)  ( 0  0  1)  ( 0  0  1)  ( 0  0  1)  ( 0  0  1)  ( 0  0  1)
Note: your k-points are not as symmetric as your crystal!

256 k-points: 16 x 16 x 1 Monkhorst-Pack grid
72 k-points in the irreducible part of the Brillouin zone
       k-points in crystal coordinates                weights
   0:     0.03125000   -0.03125000    0.00000000          2/256
   1:     0.03125000    0.03125000    0.00000000          2/256
   2:     0.09375000   -0.09375000    0.00000000          2/256
   3:     0.09375000   -0.03125000    0.00000000          4/256
   4:     0.09375000    0.03125000    0.00000000          4/256
   5:     0.09375000    0.09375000    0.00000000          2/256
   6:     0.15625000   -0.15625000    0.00000000          2/256
   7:     0.15625000   -0.09375000    0.00000000          4/256
   8:     0.15625000   -0.03125000    0.00000000          4/256
   9:     0.15625000    0.03125000    0.00000000          4/256
          ...
  71:     0.46875000    0.46875000    0.00000000          2/256

Wave functions: Plane wave expansion
  Cutoff energy: 650.000 eV
  Number of coefficients (min, max): 10076, 10272
  Using FFTW library
  Eigensolver: None  MatrixOperator buffer_size: default value or 
                              see value of nblock in input file
Diagonalizer layout: Serial LAPACKOrthonormalizer layout: Serial LAPACK 

RMM-DIIS eigensolver
       keep_htpsit: True
       Block size: 10
       DIIS iterations: 3
       Threshold for DIIS: 1.0e-16
       Limit lambda: False
       use_rayleigh: False
       trial_step: 0.1 

Densities:
  Coarse grid: 15*15*225 grid
  Fine grid: 30*30*450 grid
  Total Charge: 0.000000 

Density mixing:
  Method: separate
  Backend: pulay
  Linear mixing parameter: 0.05
  Mixing with 5 old densities
  Damping of long wave oscillations: 50 

Hamiltonian:
  XC and Coulomb potentials evaluated on a 30*30*450 grid
  Using the PBE Exchange-Correlation functional
 

Memory estimate:
  Process memory now: 270.03 MiB
  Calculator: 93.92 MiB
    Density: 21.55 MiB
      Arrays: 10.04 MiB
      Localized functions: 7.64 MiB
      Mixer: 3.86 MiB
    Hamiltonian: 6.72 MiB
      Arrays: 6.57 MiB
      XC: 0.00 MiB
      Poisson: 0.00 MiB
      vbar: 0.16 MiB
    Wavefunctions: 65.65 MiB
      Arrays psit_nG: 41.38 MiB
      Eigensolver: 7.68 MiB
      Projections: 0.58 MiB
      Projectors: 6.47 MiB
      Overlap op: 6.93 MiB
      PW-descriptor: 2.62 MiB

Total number of cores used: 12
Parallelization over k-points: 12

Number of atoms: 11
Number of atomic orbitals: 143
Number of bands in calculation: 44
Bands to converge: occupied states only
Number of valence electrons: 33

... initialized

Initializing position-dependent things.

Density initialized from atomic densities
Creating initial wave functions:
  44 bands from LCAO basis set

                    
                    
                    
                    
       Al           
                    
        Al          
                    
                    
                    
           Al       
                    
                    
       Al           
                    
        Al          
                    
                    
           Al       
                    
                    
                    
       Al           
                    
        Al          
                    
                    
           Al       
                    
                    
                    
       Al           
                    
        Al          
                    
                    
                    
                    

Positions:
   0 Al     0.000000    1.649323    7.500000
   1 Al     0.000000    0.000000    9.832495
   2 Al     1.428356    0.824662   12.164990
   3 Al     0.000000    1.649323   14.497485
   4 Al     0.000000    0.000000   16.829980
   5 Al     1.428356    0.824662   19.162475
   6 Al     0.000000    1.649323   21.494971
   7 Al     0.000000    0.000000   23.827466
   8 Al     1.428356    0.824662   26.159961
   9 Al     0.000000    1.649323   28.492456
  10 Al     0.000000    0.000000   30.824951

Unit cell:
           periodic     x           y           z      points  spacing
  1. axis:    yes    2.856711    0.000000    0.000000    15     0.1649
  2. axis:    yes    1.428356    2.473985    0.000000    15     0.1649
  3. axis:    no     0.000000    0.000000   38.324951   225     0.1703

  Lengths:   2.856711   2.856711  38.324951
  Angles:   90.000000  90.000000  60.000000

Effective grid spacing dv^(1/3) = 0.1749

                     log10-error:    total        iterations:
           time      wfs    density  energy       fermi  poisson
iter:   1  19:37:46  +1.29   +inf   -39.667854    2             
iter:   2  19:37:53  -2.23   +inf   -40.568152    3             
iter:   3  19:37:59  -3.36   +inf   -40.572795    2             
iter:   4  19:38:06  -3.31  -0.89   -40.794042    33            
iter:   5  19:38:14  -3.49  -0.92   -40.734818    34            
iter:   6  19:38:21  -2.67  -0.92   -40.395489    33            
iter:   7  19:38:28  -2.18  -1.07   -40.514923    3             
iter:   8  19:38:36  -2.66  -1.34   -40.423610    3             
iter:   9  19:38:43  -3.45  -1.70   -40.394695    2             
iter:  10  19:38:50  -3.56  -1.93   -40.383147    3             
iter:  11  19:38:58  -4.29  -2.17   -40.381182    2             
iter:  12  19:39:05  -4.33  -2.27   -40.379993    2             
iter:  13  19:39:12  -4.64  -2.42   -40.379180    2             
iter:  14  19:39:20  -5.66  -2.65   -40.382732    2             
iter:  15  19:39:27  -6.09  -2.26   -40.379152    2             
iter:  16  19:39:34  -5.30  -2.68   -40.379070    2             
iter:  17  19:39:42  -5.86  -2.81   -40.379137    2             
iter:  18  19:39:49  -5.60  -2.84   -40.379142    2             
iter:  19  19:39:56  -6.53  -2.93   -40.379096    2             
iter:  20  19:40:04  -6.06  -3.04   -40.379844    2             
iter:  21  19:40:11  -6.65  -2.61   -40.379181    2             
iter:  22  19:40:18  -5.98  -3.00   -40.379086    2             
iter:  23  19:40:26  -6.82  -3.38   -40.379085    2             
iter:  24  19:40:33  -7.09  -3.46   -40.379079    2             
