
  ___ ___ ___ _ _ _  
 |   |   |_  | | | | 
 | | | | | . | | | | 
 |__ |  _|___|_____|  1.3.0
 |___|_|             

User:   fantm@hebbe07-3
Date:   Mon Feb  5 19:32:27 2018
Arch:   x86_64
Pid:    15869
Python: 2.7.14
gpaw:   /apps/Hebbe/software/MPI/intel/2017.4.196-GCC-6.4.0-2.28/impi/2017.3.196/GPAW/1.3.0-Python-2.7.14/lib/python2.7/site-packages/gpaw
_gpaw:  /apps/Hebbe/software/MPI/intel/2017.4.196-GCC-6.4.0-2.28/impi/2017.3.196/GPAW/1.3.0-Python-2.7.14/bin/
       gpaw-python
ase:    /apps/Hebbe/software/MPI/intel/2017.4.196-GCC-6.4.0-2.28/impi/2017.3.196/ASE/3.15.0-Python-2.7.14/lib/python2.7/site-packages/ase-3.15.0-py2.7.egg/ase (version 3.15.0)
numpy:  /apps/Hebbe/software/MPI/intel/2017.4.196-GCC-6.4.0-2.28/impi/2017.3.196/Python/2.7.14/lib/python2.7/site-packages/numpy-1.13.1-py2.7-linux-x86_64.egg/numpy (version 1.13.1)
scipy:  /apps/Hebbe/software/MPI/intel/2017.4.196-GCC-6.4.0-2.28/impi/2017.3.196/Python/2.7.14/lib/python2.7/site-packages/scipy-0.19.1-py2.7-linux-x86_64.egg/scipy (version 0.19.1)
units:  Angstrom and eV
cores:  12

Input parameters:
  basis: dzp
  eigensolver: rmm-diis
  kpts: [16 16  1]
  mode: {ecut: 650.0,
         name: pw}
  xc: PBE

System changes: positions, numbers, cell, pbc, initial_charges, initial_magmoms 

Initialize ...

Al-setup:
  name: Aluminium
  id: 0292cae29f5d6237e50f6abdd43a7bdd
  Z: 13
  valence: 3
  core: 10
  charge: 0.0
  file: /c3se/apps/Glenn/gpaw/gpaw-setups-0.9.11271/Al.PBE.gz
  cutoffs: 1.08(comp), 1.91(filt), 2.36(core), lmax=2
  valence states:
                energy  radius
    3s(2.00)    -7.753   1.085
    3p(1.00)    -2.712   1.085
    *s          19.459   1.085
    *p          24.499   1.085
    *d           0.000   1.085

  LCAO basis set for Al:
    Name: dzp
    File: /c3se/apps/Glenn/gpaw/gpaw-setups-0.9.11271/Al.dzp.basis.gz
    Number of radial functions: 5
    Number of spherical harmonics: 13
      l=0, rc=7.8750 Bohr: 3s-sz confined orbital
      l=1, rc=10.4219 Bohr: 3p-sz confined orbital
      l=0, rc=4.6094 Bohr: 3s-dz split-valence wave
      l=1, rc=6.2812 Bohr: 3p-dz split-valence wave
      l=2, rc=10.4219 Bohr: d-type Gaussian polarization

Reference energy: -19810.269795

Spin-paired calculation

Occupation numbers:
  Fermi-Dirac: width=0.1000 eV

Convergence criteria:
  Maximum total energy change: 0.0005 eV / electron
  Maximum integral of absolute density change: 0.0001 electrons
  Maximum integral of absolute eigenstate change: 4e-08 eV^2
  Maximum number of iterations: 333

Symmetries present (total): 6

  ( 1  0  0)  ( 1 -1  0)  ( 0  1  0)  ( 0 -1  0)  (-1  1  0)  (-1  0  0)
  ( 0  1  0)  ( 0 -1  0)  ( 1  0  0)  ( 1 -1  0)  (-1  0  0)  (-1  1  0)
  ( 0  0  1)  ( 0  0  1)  ( 0  0  1)  ( 0  0  1)  ( 0  0  1)  ( 0  0  1)
Note: your k-points are not as symmetric as your crystal!

256 k-points: 16 x 16 x 1 Monkhorst-Pack grid
72 k-points in the irreducible part of the Brillouin zone
       k-points in crystal coordinates                weights
   0:     0.03125000   -0.03125000    0.00000000          2/256
   1:     0.03125000    0.03125000    0.00000000          2/256
   2:     0.09375000   -0.09375000    0.00000000          2/256
   3:     0.09375000   -0.03125000    0.00000000          4/256
   4:     0.09375000    0.03125000    0.00000000          4/256
   5:     0.09375000    0.09375000    0.00000000          2/256
   6:     0.15625000   -0.15625000    0.00000000          2/256
   7:     0.15625000   -0.09375000    0.00000000          4/256
   8:     0.15625000   -0.03125000    0.00000000          4/256
   9:     0.15625000    0.03125000    0.00000000          4/256
          ...
  71:     0.46875000    0.46875000    0.00000000          2/256

Wave functions: Plane wave expansion
  Cutoff energy: 650.000 eV
  Number of coefficients (min, max): 5170, 5278
  Using FFTW library
  Eigensolver: None  MatrixOperator buffer_size: default value or 
                              see value of nblock in input file
Diagonalizer layout: Serial LAPACKOrthonormalizer layout: Serial LAPACK 

RMM-DIIS eigensolver
       keep_htpsit: True
       Block size: 10
       DIIS iterations: 3
       Threshold for DIIS: 1.0e-16
       Limit lambda: False
       use_rayleigh: False
       trial_step: 0.1 

Densities:
  Coarse grid: 15*15*120 grid
  Fine grid: 30*30*240 grid
  Total Charge: 0.000000 

Density mixing:
  Method: separate
  Backend: pulay
  Linear mixing parameter: 0.05
  Mixing with 5 old densities
  Damping of long wave oscillations: 50 

Hamiltonian:
  XC and Coulomb potentials evaluated on a 30*30*240 grid
  Using the PBE Exchange-Correlation functional
 

Memory estimate:
  Process memory now: 100.41 MiB
  Calculator: 27.81 MiB
    Density: 11.34 MiB
      Arrays: 5.36 MiB
      Localized functions: 3.93 MiB
      Mixer: 2.06 MiB
    Hamiltonian: 3.58 MiB
      Arrays: 3.50 MiB
      XC: 0.00 MiB
      Poisson: 0.00 MiB
      vbar: 0.08 MiB
    Wavefunctions: 12.88 MiB
      Arrays psit_nG: 5.80 MiB
      Eigensolver: 1.37 MiB
      Projections: 0.04 MiB
      Projectors: 3.32 MiB
      Overlap op: 0.97 MiB
      PW-descriptor: 1.39 MiB

Total number of cores used: 12
Parallelization over k-points: 12

Number of atoms: 3
Number of atomic orbitals: 39
Number of bands in calculation: 12
Bands to converge: occupied states only
Number of valence electrons: 9

... initialized

Initializing position-dependent things.

Density initialized from atomic densities
Creating initial wave functions:
  12 bands from LCAO basis set

                    
                    
                    
                    
       Al           
                    
                    
        Al          
                    
                    
           Al       
                    
                    
                    
                    

Positions:
   0 Al     1.428356    0.824662    7.500000
   1 Al     0.000000    1.649323    9.832495
   2 Al     0.000000    0.000000   12.164990

Unit cell:
           periodic     x           y           z      points  spacing
  1. axis:    yes    2.856711    0.000000    0.000000    15     0.1649
  2. axis:    yes    1.428356    2.473985    0.000000    15     0.1649
  3. axis:    no     0.000000    0.000000   19.664990   120     0.1639

  Lengths:   2.856711   2.856711  19.664990
  Angles:   90.000000  90.000000  60.000000

Effective grid spacing dv^(1/3) = 0.1727

                     log10-error:    total        iterations:
           time      wfs    density  energy       fermi  poisson
iter:   1  19:32:31  +1.22   +inf   -10.425008    3             
iter:   2  19:32:32  -2.00   +inf   -10.670802    3             
iter:   3  19:32:33  -3.18   +inf   -10.673008    2             
iter:   4  19:32:34  -3.06  -0.83   -10.598037    4             
iter:   5  19:32:34  -2.10  -0.87   -10.540389    26            
iter:   6  19:32:35  -1.71  -1.04   -10.508850    3             
iter:   7  19:32:36  -2.69  -1.53   -10.528573    3             
iter:   8  19:32:37  -2.28  -1.56   -10.510301    3             
iter:   9  19:32:38  -3.91  -2.50   -10.513083    3             
iter:  10  19:32:39  -4.83  -2.68   -10.513123    2             
iter:  11  19:32:40  -4.91  -2.78   -10.513132    2             
iter:  12  19:32:41  -5.81  -3.61   -10.513136    2             
iter:  13  19:32:42  -6.36  -3.64   -10.513137    2             
iter:  14  19:32:43  -6.68  -3.67   -10.513139    2             
iter:  15  19:32:43  -7.18  -3.76   -10.513139    2             
iter:  16  19:32:44  -6.63  -3.80   -10.513136    2             
iter:  17  19:32:45  -7.46  -3.97   -10.513136    2             
iter:  18  19:32:46  -8.55  -4.59   -10.513136    1             

Converged after 18 iterations.

Dipole moment: (-0.042412, -0.024487, -0.000000) |e|*Ang

Energy contributions relative to reference atoms: (reference = -19810.269795)

Kinetic:         +8.083667
Potential:       -3.853464
External:        +0.000000
XC:             -14.707343
Entropy (-ST):   -0.043745
Local:           -0.014122
--------------------------
Free energy:    -10.535008
Extrapolated:   -10.513136

Fermi level: 0.13277

Warning: Showing only first 2 kpts
 Kpt  Band  Eigenvalues  Occupancy
  0     2     -6.07706    0.01562
  0     3     -2.95794    0.01562
  0     4      0.54836    0.00024
  0     5      3.07407    0.00000

  1     2     -6.12367    0.01562
  1     3     -3.00236    0.01562
  1     4      0.50405    0.00037
  1     5      3.02854    0.00000


Timing:                              incl.     excl.
-----------------------------------------------------------
Hamiltonian:                         0.200     0.001   0.0% |
 Atomic:                             0.048     0.048   0.3% |
  XC Correction:                     0.000     0.000   0.0% |
 Calculate atomic Hamiltonians:      0.023     0.023   0.1% |
 Communicate:                        0.000     0.000   0.0% |
 Initialize Hamiltonian:             0.000     0.000   0.0% |
 Poisson:                            0.001     0.001   0.0% |
 XC 3D grid:                         0.126     0.126   0.7% |
LCAO initialization:                 2.456     0.073   0.4% |
 LCAO eigensolver:                   1.579     0.000   0.0% |
  Calculate projections:             0.000     0.000   0.0% |
  DenseAtomicCorrection:             0.001     0.001   0.0% |
  Distribute overlap matrix:         0.000     0.000   0.0% |
  Orbital Layouts:                   0.003     0.003   0.0% |
  Potential matrix:                  1.568     1.568   8.3% |--|
  Sum over cells:                    0.007     0.007   0.0% |
 LCAO to grid:                       0.297     0.297   1.6% ||
 Set positions (LCAO WFS):           0.507     0.000   0.0% |
  Basic WFS set positions:           0.001     0.001   0.0% |
  Basis functions set positions:     0.000     0.000   0.0% |
  TCI: Calculate S, T, P:            0.506     0.506   2.7% ||
PWDescriptor:                        0.007     0.007   0.0% |
SCF-cycle:                          15.439     1.242   6.6% |--|
 Density:                            1.814     0.000   0.0% |
  Atomic density matrices:           0.019     0.019   0.1% |
  Mix:                               0.577     0.577   3.1% ||
  Multipole moments:                 0.002     0.002   0.0% |
  Pseudo density:                    1.215     1.074   5.7% |-|
   Symmetrize density:               0.141     0.141   0.7% |
 Hamiltonian:                        2.749     0.011   0.1% |
  Atomic:                            0.731     0.731   3.9% |-|
   XC Correction:                    0.000     0.000   0.0% |
  Calculate atomic Hamiltonians:     0.231     0.231   1.2% |
  Communicate:                       0.001     0.001   0.0% |
  Poisson:                           0.011     0.011   0.1% |
  XC 3D grid:                        1.764     1.764   9.4% |---|
 Orthonormalize:                     0.491     0.004   0.0% |
  Band Layouts:                      0.004     0.001   0.0% |
   Inverse Cholesky:                 0.003     0.003   0.0% |
  calc_s_matrix:                     0.034     0.034   0.2% |
  projections:                       0.415     0.415   2.2% ||
  rotate_psi:                        0.036     0.036   0.2% |
 RMM-DIIS:                           7.760     1.326   7.0% |--|
  Calculate residuals:               1.150     1.150   6.1% |-|
  DIIS step:                         3.472     0.075   0.4% |
   Calculate residuals:              2.695     2.695  14.3% |-----|
   Construct matrix:                 0.101     0.101   0.5% |
   Linear solve:                     0.036     0.036   0.2% |
   Update trial vectors:             0.109     0.109   0.6% |
   precondition:                     0.456     0.456   2.4% ||
  Find lambda:                       0.074     0.074   0.4% |
  Update psi:                        0.036     0.036   0.2% |
  precondition:                      0.972     0.972   5.2% |-|
  projections:                       0.730     0.730   3.9% |-|
 Subspace diag:                      1.382     0.005   0.0% |
  Band Layouts:                      0.010     0.001   0.0% |
   Diagonalize:                      0.008     0.008   0.0% |
   Distribute results:               0.001     0.001   0.0% |
  calc_h_matrix:                     1.297     1.297   6.9% |--|
  rotate_psi:                        0.070     0.070   0.4% |
Set symmetry:                        0.085     0.085   0.4% |
Other:                               0.662     0.662   3.5% ||
-----------------------------------------------------------
Total:                                        18.849 100.0%

Memory usage: 139.57 MiB
Date: Mon Feb  5 19:32:46 2018
