
  ___ ___ ___ _ _ _  
 |   |   |_  | | | | 
 | | | | | . | | | | 
 |__ |  _|___|_____|  1.3.0
 |___|_|             

User:   edenborg@hebbe14-7
Date:   Tue Feb  6 11:41:01 2018
Arch:   x86_64
Pid:    4521
Python: 2.7.14
gpaw:   /apps/Hebbe/software/MPI/intel/2017.4.196-GCC-6.4.0-2.28/impi/2017.3.196/GPAW/1.3.0-Python-2.7.14/lib/python2.7/site-packages/gpaw
_gpaw:  /apps/Hebbe/software/MPI/intel/2017.4.196-GCC-6.4.0-2.28/impi/2017.3.196/GPAW/1.3.0-Python-2.7.14/bin/
       gpaw-python
ase:    /c3se/users/edenborg/Hebbe/ase/ase (version 3.15.1b1)
numpy:  /apps/Hebbe/software/MPI/intel/2017.4.196-GCC-6.4.0-2.28/impi/2017.3.196/Python/2.7.14/lib/python2.7/site-packages/numpy-1.13.1-py2.7-linux-x86_64.egg/numpy (version 1.13.1)
scipy:  /apps/Hebbe/software/MPI/intel/2017.4.196-GCC-6.4.0-2.28/impi/2017.3.196/Python/2.7.14/lib/python2.7/site-packages/scipy-0.19.1-py2.7-linux-x86_64.egg/scipy (version 0.19.1)
units:  Angstrom and eV
cores:  12

Input parameters:
  basis: dzp
  eigensolver: rmm-diis
  kpts: [16 16  1]
  mode: {ecut: 650.0,
         name: pw}
  xc: PBE

System changes: positions, numbers, cell, pbc, initial_charges, initial_magmoms 

Initialize ...

Al-setup:
  name: Aluminium
  id: 0292cae29f5d6237e50f6abdd43a7bdd
  Z: 13
  valence: 3
  core: 10
  charge: 0.0
  file: /c3se/apps/Glenn/gpaw/gpaw-setups-0.9.11271/Al.PBE.gz
  cutoffs: 1.08(comp), 1.91(filt), 2.36(core), lmax=2
  valence states:
                energy  radius
    3s(2.00)    -7.753   1.085
    3p(1.00)    -2.712   1.085
    *s          19.459   1.085
    *p          24.499   1.085
    *d           0.000   1.085

  LCAO basis set for Al:
    Name: dzp
    File: /c3se/apps/Glenn/gpaw/gpaw-setups-0.9.11271/Al.dzp.basis.gz
    Number of radial functions: 5
    Number of spherical harmonics: 13
      l=0, rc=7.8750 Bohr: 3s-sz confined orbital
      l=1, rc=10.4219 Bohr: 3p-sz confined orbital
      l=0, rc=4.6094 Bohr: 3s-dz split-valence wave
      l=1, rc=6.2812 Bohr: 3p-dz split-valence wave
      l=2, rc=10.4219 Bohr: d-type Gaussian polarization

Reference energy: -99051.348973

Spin-paired calculation

Occupation numbers:
  Fermi-Dirac: width=0.1000 eV

Convergence criteria:
  Maximum total energy change: 0.0005 eV / electron
  Maximum integral of absolute density change: 0.0001 electrons
  Maximum integral of absolute eigenstate change: 4e-08 eV^2
  Maximum number of iterations: 333

Symmetries present (total): 6

  ( 1  0  0)  ( 1 -1  0)  ( 0  1  0)  ( 0 -1  0)  (-1  1  0)  (-1  0  0)
  ( 0  1  0)  ( 0 -1  0)  ( 1  0  0)  ( 1 -1  0)  (-1  0  0)  (-1  1  0)
  ( 0  0  1)  ( 0  0  1)  ( 0  0  1)  ( 0  0  1)  ( 0  0  1)  ( 0  0  1)
Note: your k-points are not as symmetric as your crystal!

256 k-points: 16 x 16 x 1 Monkhorst-Pack grid
72 k-points in the irreducible part of the Brillouin zone
       k-points in crystal coordinates                weights
   0:     0.03125000   -0.03125000    0.00000000          2/256
   1:     0.03125000    0.03125000    0.00000000          2/256
   2:     0.09375000   -0.09375000    0.00000000          2/256
   3:     0.09375000   -0.03125000    0.00000000          4/256
   4:     0.09375000    0.03125000    0.00000000          4/256
   5:     0.09375000    0.09375000    0.00000000          2/256
   6:     0.15625000   -0.15625000    0.00000000          2/256
   7:     0.15625000   -0.09375000    0.00000000          4/256
   8:     0.15625000   -0.03125000    0.00000000          4/256
   9:     0.15625000    0.03125000    0.00000000          4/256
          ...
  71:     0.46875000    0.46875000    0.00000000          2/256

Wave functions: Plane wave expansion
  Cutoff energy: 650.000 eV
  Number of coefficients (min, max): 12543, 12820
  Using FFTW library
  Eigensolver: None  MatrixOperator buffer_size: default value or 
                              see value of nblock in input file
Diagonalizer layout: Serial LAPACKOrthonormalizer layout: Serial LAPACK 

RMM-DIIS eigensolver
       keep_htpsit: True
       Block size: 10
       DIIS iterations: 3
       Threshold for DIIS: 1.0e-16
       Limit lambda: False
       use_rayleigh: False
       trial_step: 0.1 

Densities:
  Coarse grid: 15*15*280 grid
  Fine grid: 30*30*560 grid
  Total Charge: 0.000000 

Density mixing:
  Method: separate
  Backend: pulay
  Linear mixing parameter: 0.05
  Mixing with 5 old densities
  Damping of long wave oscillations: 50 

Hamiltonian:
  XC and Coulomb potentials evaluated on a 30*30*560 grid
  Using the PBE Exchange-Correlation functional
 

Memory estimate:
  Process memory now: 384.08 MiB
  Calculator: 142.50 MiB
    Density: 26.81 MiB
      Arrays: 12.50 MiB
      Localized functions: 9.50 MiB
      Mixer: 4.81 MiB
    Hamiltonian: 8.37 MiB
      Arrays: 8.17 MiB
      XC: 0.00 MiB
      Poisson: 0.00 MiB
      vbar: 0.20 MiB
    Wavefunctions: 107.32 MiB
      Arrays psit_nG: 70.42 MiB
      Eigensolver: 12.72 MiB
      Projections: 1.07 MiB
      Projectors: 8.06 MiB
      Overlap op: 11.79 MiB
      PW-descriptor: 3.27 MiB

Total number of cores used: 12
Parallelization over k-points: 12

Number of atoms: 15
Number of atomic orbitals: 195
Number of bands in calculation: 60
Bands to converge: occupied states only
Number of valence electrons: 45

... initialized

Initializing position-dependent things.

Density initialized from atomic densities
Creating initial wave functions:
  60 bands from LCAO basis set

                    
                    
                    
                    
       Al           
                    
        Al          
                    
                    
                    
           Al       
                    
                    
       Al           
                    
        Al          
                    
                    
           Al       
                    
                    
                    
       Al           
                    
        Al          
                    
                    
           Al       
                    
                    
       Al           
                    
        Al          
                    
                    
           Al       
                    
                    
                    
       Al           
                    
        Al          
                    
                    
           Al       
                    
                    
                    
                    

Positions:
   0 Al     1.429770    0.825478    7.500000
   1 Al     0.000000    1.650956    9.834804
   2 Al     0.000000    0.000000   12.169609
   3 Al     1.429770    0.825478   14.504413
   4 Al     0.000000    1.650956   16.839218
   5 Al     0.000000    0.000000   19.174022
   6 Al     1.429770    0.825478   21.508827
   7 Al     0.000000    1.650956   23.843631
   8 Al     0.000000    0.000000   26.178436
   9 Al     1.429770    0.825478   28.513240
  10 Al     0.000000    1.650956   30.848045
  11 Al     0.000000    0.000000   33.182849
  12 Al     1.429770    0.825478   35.517654
  13 Al     0.000000    1.650956   37.852458
  14 Al     0.000000    0.000000   40.187263

Unit cell:
           periodic     x           y           z      points  spacing
  1. axis:    yes    2.859540    0.000000    0.000000    15     0.1651
  2. axis:    yes    1.429770    2.476434    0.000000    15     0.1651
  3. axis:    no     0.000000    0.000000   47.687263   280     0.1703

  Lengths:   2.859540   2.859540  47.687263
  Angles:   90.000000  90.000000  60.000000

Effective grid spacing dv^(1/3) = 0.1750

                     log10-error:    total        iterations:
           time      wfs    density  energy       fermi  poisson
iter:   1  11:41:38  +1.29   +inf   -54.303914    3             
iter:   2  11:41:50  -2.28   +inf   -55.520790    3             
iter:   3  11:42:02  -3.41   +inf   -55.526445    2             
iter:   4  11:42:16  -3.32  -0.90   -56.468985    33            
iter:   5  11:42:30  -3.43  -0.89   -56.679557    33            
iter:   6  11:42:43  -3.09  -0.87   -55.660602    3             
iter:   7  11:42:57  -2.30  -0.98   -55.461197    3             
iter:   8  11:43:10  -2.60  -1.25   -55.489813    3             
iter:   9  11:43:24  -3.26  -1.51   -55.374836    3             
iter:  10  11:43:37  -3.65  -1.81   -55.363212    3             
iter:  11  11:43:51  -4.05  -1.91   -55.414784    3             
iter:  12  11:44:04  -4.14  -1.70   -55.336169    3             
iter:  13  11:44:18  -4.94  -2.18   -55.342742    3             
iter:  14  11:44:31  -5.27  -2.08   -55.384145    2             
iter:  15  11:44:45  -4.85  -1.77   -55.332106    2             
iter:  16  11:44:58  -4.92  -2.43   -55.331444    3             
iter:  17  11:45:12  -5.28  -2.53   -55.333998    3             
iter:  18  11:45:25  -5.59  -2.37   -55.331216    3             
iter:  19  11:45:39  -5.94  -2.68   -55.331907    2             
iter:  20  11:45:52  -5.77  -2.59   -55.347831    2             
iter:  21  11:46:06  -5.94  -2.01   -55.331356    2             
iter:  22  11:46:20  -5.89  -2.76   -55.331050    2             
iter:  23  11:46:33  -6.30  -2.92   -55.331274    2             
iter:  24  11:46:47  -6.25  -2.85   -55.331005    2             
iter:  25  11:47:01  -6.23  -3.00   -55.331060    2             
iter:  26  11:47:14  -6.60  -3.08   -55.332545    2             
iter:  27  11:47:28  -7.01  -2.53   -55.330991    2             
iter:  28  11:47:41  -6.67  -3.17   -55.330944    2             
iter:  29  11:47:55  -6.95  -3.34   -55.330937    1             
iter:  30  11:48:09  -7.45  -3.39   -55.331154    2             
iter:  31  11:48:22  -7.14  -3.02   -55.330921    2             
iter:  32  11:48:36  -7.08  -3.47   -55.330946    2             
iter:  33  11:48:49  -7.66  -3.44   -55.330963    2             
iter:  34  11:49:03  -7.92  -3.29   -55.330920    2             
iter:  35  11:49:16  -7.87  -3.60   -55.330916    2             
iter:  36  11:49:30  -7.51  -3.65   -55.330924    2             
iter:  37  11:49:44  -8.38  -3.73   -55.330911    2             
iter:  38  11:49:57  -8.56  -3.60   -55.330918    2             
iter:  39  11:50:11  -8.21  -3.77   -55.330965    2             
iter:  40  11:50:24  -7.83  -3.30   -55.330916    2             
iter:  41  11:50:38  -8.06  -3.86   -55.330913    2             
iter:  42  11:50:51  -9.04  -3.99   -55.330913    2             
iter:  43  11:51:05  -9.05  -3.91   -55.330928    2             
iter:  44  11:51:19  -8.73  -3.78   -55.330911    2             
iter:  45  11:51:32  -8.29  -3.97   -55.330914    2             
iter:  46  11:51:46  -9.02  -4.03   -55.330913    2             

Converged after 46 iterations.

Dipole moment: (-0.044405, -0.025637, 0.000189) |e|*Ang

Energy contributions relative to reference atoms: (reference = -99051.348973)

Kinetic:        +51.155880
Potential:      -24.223854
External:        +0.000000
XC:             -82.062753
Entropy (-ST):   -0.205765
Local:           -0.097304
--------------------------
Free energy:    -55.433796
Extrapolated:   -55.330913

Fermi level: 4.18518

Warning: Showing only first 2 kpts
 Kpt  Band  Eigenvalues  Occupancy
  0    20      4.72844    0.00007
  0    21      5.70209    0.00000
  0    22      6.63465    0.00000
  0    23      7.46229    0.00000

  1    20      4.68583    0.00010
  1    21      5.66006    0.00000
  1    22      6.59289    0.00000
  1    23      7.42007    0.00000


Timing:                              incl.     excl.
-----------------------------------------------------------
Hamiltonian:                         0.574     0.001   0.0% |
 Atomic:                             0.104     0.057   0.0% |
  XC Correction:                     0.047     0.047   0.0% |
 Calculate atomic Hamiltonians:      0.192     0.192   0.0% |
 Communicate:                        0.000     0.000   0.0% |
 Initialize Hamiltonian:             0.000     0.000   0.0% |
 Poisson:                            0.002     0.002   0.0% |
 XC 3D grid:                         0.274     0.274   0.0% |
LCAO initialization:                21.163     0.072   0.0% |
 LCAO eigensolver:                  12.390     0.001   0.0% |
  Calculate projections:             0.005     0.005   0.0% |
  DenseAtomicCorrection:             0.015     0.015   0.0% |
  Distribute overlap matrix:         0.002     0.002   0.0% |
  Orbital Layouts:                   0.083     0.083   0.0% |
  Potential matrix:                 12.209    12.209   1.9% ||
  Sum over cells:                    0.075     0.075   0.0% |
 LCAO to grid:                       4.547     4.547   0.7% |
 Set positions (LCAO WFS):           4.154     0.002   0.0% |
  Basic WFS set positions:           0.002     0.002   0.0% |
  Basis functions set positions:     0.000     0.000   0.0% |
  TCI: Calculate S, T, P:            4.150     4.150   0.6% |
PWDescriptor:                        0.016     0.016   0.0% |
SCF-cycle:                         621.634    54.493   8.4% |--|
 Density:                           49.770     0.001   0.0% |
  Atomic density matrices:           0.220     0.220   0.0% |
  Mix:                              15.472    15.472   2.4% ||
  Multipole moments:                 0.017     0.017   0.0% |
  Pseudo density:                   34.060    33.130   5.1% |-|
   Symmetrize density:               0.930     0.930   0.1% |
 Hamiltonian:                       21.446     0.058   0.0% |
  Atomic:                            4.407     2.377   0.4% |
   XC Correction:                    2.030     2.030   0.3% |
  Calculate atomic Hamiltonians:     5.072     5.072   0.8% |
  Communicate:                       0.009     0.009   0.0% |
  Poisson:                           0.071     0.071   0.0% |
  XC 3D grid:                       11.829    11.829   1.8% ||
 Orthonormalize:                    23.755     0.013   0.0% |
  Band Layouts:                      0.032     0.002   0.0% |
   Inverse Cholesky:                 0.030     0.030   0.0% |
  calc_s_matrix:                     2.113     2.113   0.3% |
  projections:                      18.582    18.582   2.9% ||
  rotate_psi:                        3.016     3.016   0.5% |
 RMM-DIIS:                         424.393    39.432   6.1% |-|
  Calculate residuals:              88.350    88.350  13.7% |----|
  DIIS step:                       197.393     2.734   0.4% |
   Calculate residuals:            174.628   174.628  27.1% |----------|
   Construct matrix:                 2.514     2.514   0.4% |
   Linear solve:                     0.458     0.458   0.1% |
   Update trial vectors:             3.403     3.403   0.5% |
   precondition:                    13.656    13.656   2.1% ||
  Find lambda:                       1.878     1.878   0.3% |
  Update psi:                        1.344     1.344   0.2% |
  precondition:                     28.613    28.613   4.4% |-|
  projections:                      67.385    67.385  10.4% |---|
 Subspace diag:                     47.777     0.022   0.0% |
  Band Layouts:                      0.189     0.004   0.0% |
   Diagonalize:                      0.181     0.181   0.0% |
   Distribute results:               0.004     0.004   0.0% |
  calc_h_matrix:                    40.885    40.885   6.3% |--|
  rotate_psi:                        6.681     6.681   1.0% |
Set symmetry:                        0.103     0.103   0.0% |
Other:                               1.494     1.494   0.2% |
-----------------------------------------------------------
Total:                                       644.985 100.0%

Memory usage: 445.05 MiB
Date: Tue Feb  6 11:51:46 2018
