
  ___ ___ ___ _ _ _  
 |   |   |_  | | | | 
 | | | | | . | | | | 
 |__ |  _|___|_____|  1.3.0
 |___|_|             

User:   fantm@hebbe04-2
Date:   Mon Feb  5 18:58:23 2018
Arch:   x86_64
Pid:    17097
Python: 2.7.14
gpaw:   /apps/Hebbe/software/MPI/intel/2017.4.196-GCC-6.4.0-2.28/impi/2017.3.196/GPAW/1.3.0-Python-2.7.14/lib/python2.7/site-packages/gpaw
_gpaw:  /apps/Hebbe/software/MPI/intel/2017.4.196-GCC-6.4.0-2.28/impi/2017.3.196/GPAW/1.3.0-Python-2.7.14/bin/
       gpaw-python
ase:    /apps/Hebbe/software/MPI/intel/2017.4.196-GCC-6.4.0-2.28/impi/2017.3.196/ASE/3.15.0-Python-2.7.14/lib/python2.7/site-packages/ase-3.15.0-py2.7.egg/ase (version 3.15.0)
numpy:  /apps/Hebbe/software/MPI/intel/2017.4.196-GCC-6.4.0-2.28/impi/2017.3.196/Python/2.7.14/lib/python2.7/site-packages/numpy-1.13.1-py2.7-linux-x86_64.egg/numpy (version 1.13.1)
scipy:  /apps/Hebbe/software/MPI/intel/2017.4.196-GCC-6.4.0-2.28/impi/2017.3.196/Python/2.7.14/lib/python2.7/site-packages/scipy-0.19.1-py2.7-linux-x86_64.egg/scipy (version 0.19.1)
units:  Angstrom and eV
cores:  12

Input parameters:
  basis: dzp
  eigensolver: rmm-diis
  kpts: [16 16  1]
  mode: {ecut: 650.0,
         name: pw}
  xc: PBE

System changes: positions, numbers, cell, pbc, initial_charges, initial_magmoms 

Initialize ...

Al-setup:
  name: Aluminium
  id: 0292cae29f5d6237e50f6abdd43a7bdd
  Z: 13
  valence: 3
  core: 10
  charge: 0.0
  file: /c3se/apps/Glenn/gpaw/gpaw-setups-0.9.11271/Al.PBE.gz
  cutoffs: 1.08(comp), 1.91(filt), 2.36(core), lmax=2
  valence states:
                energy  radius
    3s(2.00)    -7.753   1.085
    3p(1.00)    -2.712   1.085
    *s          19.459   1.085
    *p          24.499   1.085
    *d           0.000   1.085

  LCAO basis set for Al:
    Name: dzp
    File: /c3se/apps/Glenn/gpaw/gpaw-setups-0.9.11271/Al.dzp.basis.gz
    Number of radial functions: 5
    Number of spherical harmonics: 13
      l=0, rc=7.8750 Bohr: 3s-sz confined orbital
      l=1, rc=10.4219 Bohr: 3p-sz confined orbital
      l=0, rc=4.6094 Bohr: 3s-dz split-valence wave
      l=1, rc=6.2812 Bohr: 3p-dz split-valence wave
      l=2, rc=10.4219 Bohr: d-type Gaussian polarization

Reference energy: -85844.502444

Spin-paired calculation

Occupation numbers:
  Fermi-Dirac: width=0.1000 eV

Convergence criteria:
  Maximum total energy change: 0.0005 eV / electron
  Maximum integral of absolute density change: 0.0001 electrons
  Maximum integral of absolute eigenstate change: 4e-08 eV^2
  Maximum number of iterations: 333

Symmetries present (total): 6

  ( 1  0  0)  ( 1 -1  0)  ( 0  1  0)  ( 0 -1  0)  (-1  1  0)  (-1  0  0)
  ( 0  1  0)  ( 0 -1  0)  ( 1  0  0)  ( 1 -1  0)  (-1  0  0)  (-1  1  0)
  ( 0  0  1)  ( 0  0  1)  ( 0  0  1)  ( 0  0  1)  ( 0  0  1)  ( 0  0  1)
Note: your k-points are not as symmetric as your crystal!

256 k-points: 16 x 16 x 1 Monkhorst-Pack grid
72 k-points in the irreducible part of the Brillouin zone
       k-points in crystal coordinates                weights
   0:     0.03125000   -0.03125000    0.00000000          2/256
   1:     0.03125000    0.03125000    0.00000000          2/256
   2:     0.09375000   -0.09375000    0.00000000          2/256
   3:     0.09375000   -0.03125000    0.00000000          4/256
   4:     0.09375000    0.03125000    0.00000000          4/256
   5:     0.09375000    0.09375000    0.00000000          2/256
   6:     0.15625000   -0.15625000    0.00000000          2/256
   7:     0.15625000   -0.09375000    0.00000000          4/256
   8:     0.15625000   -0.03125000    0.00000000          4/256
   9:     0.15625000    0.03125000    0.00000000          4/256
          ...
  71:     0.46875000    0.46875000    0.00000000          2/256

Wave functions: Plane wave expansion
  Cutoff energy: 650.000 eV
  Number of coefficients (min, max): 11292, 11528
  Using FFTW library
  Eigensolver: None  MatrixOperator buffer_size: default value or 
                              see value of nblock in input file
Diagonalizer layout: Serial LAPACKOrthonormalizer layout: Serial LAPACK 

RMM-DIIS eigensolver
       keep_htpsit: True
       Block size: 10
       DIIS iterations: 3
       Threshold for DIIS: 1.0e-16
       Limit lambda: False
       use_rayleigh: False
       trial_step: 0.1 

Densities:
  Coarse grid: 15*15*256 grid
  Fine grid: 30*30*512 grid
  Total Charge: 0.000000 

Density mixing:
  Method: separate
  Backend: pulay
  Linear mixing parameter: 0.05
  Mixing with 5 old densities
  Damping of long wave oscillations: 50 

Hamiltonian:
  XC and Coulomb potentials evaluated on a 30*30*512 grid
  Using the PBE Exchange-Correlation functional
 

Memory estimate:
  Process memory now: 323.55 MiB
  Calculator: 117.17 MiB
    Density: 24.40 MiB
      Arrays: 11.43 MiB
      Localized functions: 8.57 MiB
      Mixer: 4.39 MiB
    Hamiltonian: 7.65 MiB
      Arrays: 7.47 MiB
      XC: 0.00 MiB
      Poisson: 0.00 MiB
      vbar: 0.18 MiB
    Wavefunctions: 85.12 MiB
      Arrays psit_nG: 54.88 MiB
      Eigensolver: 10.03 MiB
      Projections: 0.80 MiB
      Projectors: 7.25 MiB
      Overlap op: 9.19 MiB
      PW-descriptor: 2.97 MiB

Total number of cores used: 12
Parallelization over k-points: 12

Number of atoms: 13
Number of atomic orbitals: 169
Number of bands in calculation: 52
Bands to converge: occupied states only
Number of valence electrons: 39

... initialized

Initializing position-dependent things.

Density initialized from atomic densities
Creating initial wave functions:
  52 bands from LCAO basis set

                    
                    
                    
                    
       Al           
                    
        Al          
                    
                    
                    
           Al       
                    
                    
       Al           
                    
        Al          
                    
                    
           Al       
                    
                    
       Al           
                    
        Al          
                    
                    
                    
           Al       
                    
                    
       Al           
                    
        Al          
                    
                    
           Al       
                    
                    
       Al           
                    
                    
                    
                    

Positions:
   0 Al     0.000000    0.000000    7.500000
   1 Al     1.428356    0.824662    9.832495
   2 Al     0.000000    1.649323   12.164990
   3 Al     0.000000    0.000000   14.497485
   4 Al     1.428356    0.824662   16.829980
   5 Al     0.000000    1.649323   19.162475
   6 Al     0.000000    0.000000   21.494971
   7 Al     1.428356    0.824662   23.827466
   8 Al     0.000000    1.649323   26.159961
   9 Al     0.000000    0.000000   28.492456
  10 Al     1.428356    0.824662   30.824951
  11 Al     0.000000    1.649323   33.157446
  12 Al     0.000000    0.000000   35.489941

Unit cell:
           periodic     x           y           z      points  spacing
  1. axis:    yes    2.856711    0.000000    0.000000    15     0.1649
  2. axis:    yes    1.428356    2.473985    0.000000    15     0.1649
  3. axis:    no     0.000000    0.000000   42.989941   256     0.1679

  Lengths:   2.856711   2.856711  42.989941
  Angles:   90.000000  90.000000  60.000000

Effective grid spacing dv^(1/3) = 0.1741

                     log10-error:    total        iterations:
           time      wfs    density  energy       fermi  poisson
iter:   1  18:58:54  +1.29   +inf   -46.992584    2             
iter:   2  18:59:03  -2.25   +inf   -48.054556    3             
iter:   3  18:59:13  -3.37   +inf   -48.059696    2             
iter:   4  18:59:23  -3.31  -0.90   -48.586780    34            
iter:   5  18:59:34  -3.46  -0.91   -48.586134    33            
iter:   6  18:59:45  -2.93  -0.90   -47.965918    32            
iter:   7  18:59:55  -2.22  -1.03   -48.012682    3             
iter:   8  19:00:06  -2.65  -1.29   -47.966946    3             
iter:   9  19:00:17  -3.57  -1.58   -47.903809    2             
iter:  10  19:00:27  -3.45  -1.79   -47.891145    3             
iter:  11  19:00:38  -4.12  -1.92   -47.870228    3             
iter:  12  19:00:49  -4.01  -2.12   -47.866523    3             
iter:  13  19:01:00  -4.88  -2.27   -47.875189    2             
iter:  14  19:01:10  -5.50  -2.06   -47.871135    2             
iter:  15  19:01:21  -5.16  -2.15   -47.863835    2             
iter:  16  19:01:31  -5.39  -2.57   -47.864410    3             
iter:  17  19:01:42  -5.46  -2.51   -47.864532    3             
iter:  18  19:01:53  -5.24  -2.55   -47.863667    2             
iter:  19  19:02:03  -5.83  -2.85   -47.863914    2             
iter:  20  19:02:14  -6.51  -2.79   -47.865847    2             
iter:  21  19:02:25  -6.34  -2.41   -47.863618    2             
iter:  22  19:02:35  -5.80  -3.03   -47.863632    2             
iter:  23  19:02:46  -6.75  -3.09   -47.863776    2             
iter:  24  19:02:57  -6.24  -2.94   -47.863608    2             
iter:  25  19:03:07  -6.65  -3.25   -47.863620    2             
iter:  26  19:03:18  -7.02  -3.37   -47.864144    2             
iter:  27  19:03:28  -7.14  -2.73   -47.863617    2             
iter:  28  19:03:39  -6.89  -3.32   -47.863597    2             
iter:  29  19:03:50  -7.66  -3.53   -47.863643    2             
iter:  30  19:04:01  -7.59  -3.33   -47.863594    2             
iter:  31  19:04:12  -7.48  -3.69   -47.863594    2             
iter:  32  19:04:23  -7.96  -3.84   -47.863617    2             
iter:  33  19:04:33  -8.58  -3.40   -47.863593    2             
iter:  34  19:04:44  -8.00  -3.82   -47.863592    2             
iter:  35  19:04:55  -8.26  -4.00   -47.863603    2             
iter:  36  19:05:06  -8.78  -3.75   -47.863591    2             
iter:  37  19:05:17  -8.54  -4.04   -47.863592    2             

Converged after 37 iterations.

Dipole moment: (0.000000, 0.000000, 0.000043) |e|*Ang

Energy contributions relative to reference atoms: (reference = -85844.502444)

Kinetic:        +45.200322
Potential:      -21.743339
External:        +0.000000
XC:             -71.146849
Entropy (-ST):   -0.174414
Local:           -0.086520
--------------------------
Free energy:    -47.950799
Extrapolated:   -47.863592

Fermi level: 3.88768

Warning: Showing only first 2 kpts
 Kpt  Band  Eigenvalues  Occupancy
  0    17      4.05711    0.00243
  0    18      5.16182    0.00000
  0    19      6.22407    0.00000
  0    20      7.10699    0.00000

  1    17      4.01413    0.00344
  1    18      5.11946    0.00000
  1    19      6.18209    0.00000
  1    20      7.06382    0.00000


Timing:                              incl.     excl.
-----------------------------------------------------------
Hamiltonian:                         0.445     0.001   0.0% |
 Atomic:                             0.095     0.048   0.0% |
  XC Correction:                     0.047     0.047   0.0% |
 Calculate atomic Hamiltonians:      0.082     0.082   0.0% |
 Communicate:                        0.000     0.000   0.0% |
 Initialize Hamiltonian:             0.000     0.000   0.0% |
 Poisson:                            0.002     0.002   0.0% |
 XC 3D grid:                         0.264     0.264   0.1% |
LCAO initialization:                17.831     0.074   0.0% |
 LCAO eigensolver:                  10.455     0.001   0.0% |
  Calculate projections:             0.003     0.003   0.0% |
  DenseAtomicCorrection:             0.010     0.010   0.0% |
  Distribute overlap matrix:         0.001     0.001   0.0% |
  Orbital Layouts:                   0.057     0.057   0.0% |
  Potential matrix:                 10.326    10.326   2.5% ||
  Sum over cells:                    0.057     0.057   0.0% |
 LCAO to grid:                       3.741     3.741   0.9% |
 Set positions (LCAO WFS):           3.561     0.001   0.0% |
  Basic WFS set positions:           0.002     0.002   0.0% |
  Basis functions set positions:     0.000     0.000   0.0% |
  TCI: Calculate S, T, P:            3.558     3.558   0.9% |
PWDescriptor:                        0.015     0.015   0.0% |
SCF-cycle:                         394.052    31.551   7.6% |--|
 Density:                           33.341     0.001   0.0% |
  Atomic density matrices:           0.146     0.146   0.0% |
  Mix:                               9.603     9.603   2.3% ||
  Multipole moments:                 0.012     0.012   0.0% |
  Pseudo density:                   23.578    22.906   5.5% |-|
   Symmetrize density:               0.672     0.672   0.2% |
 Hamiltonian:                       15.059     0.042   0.0% |
  Atomic:                            3.248     1.645   0.4% |
   XC Correction:                    1.603     1.603   0.4% |
  Calculate atomic Hamiltonians:     3.126     3.126   0.8% |
  Communicate:                       0.007     0.007   0.0% |
  Poisson:                           0.051     0.051   0.0% |
  XC 3D grid:                        8.585     8.585   2.1% ||
 Orthonormalize:                    13.986     0.011   0.0% |
  Band Layouts:                      0.021     0.002   0.0% |
   Inverse Cholesky:                 0.020     0.020   0.0% |
  calc_s_matrix:                     1.227     1.227   0.3% |
  projections:                      11.047    11.047   2.7% ||
  rotate_psi:                        1.680     1.680   0.4% |
 RMM-DIIS:                         268.853    26.911   6.5% |--|
  Calculate residuals:              54.171    54.171  13.1% |----|
  DIIS step:                       125.423     1.720   0.4% |
   Calculate residuals:            110.865   110.865  26.8% |----------|
   Construct matrix:                 1.643     1.643   0.4% |
   Linear solve:                     0.332     0.332   0.1% |
   Update trial vectors:             2.165     2.165   0.5% |
   precondition:                     8.697     8.697   2.1% ||
  Find lambda:                       1.220     1.220   0.3% |
  Update psi:                        0.852     0.852   0.2% |
  precondition:                     18.228    18.228   4.4% |-|
  projections:                      42.049    42.049  10.2% |---|
 Subspace diag:                     31.263     0.017   0.0% |
  Band Layouts:                      0.120     0.004   0.0% |
   Diagonalize:                      0.113     0.113   0.0% |
   Distribute results:               0.003     0.003   0.0% |
  calc_h_matrix:                    27.379    27.379   6.6% |--|
  rotate_psi:                        3.747     3.747   0.9% |
Set symmetry:                        0.122     0.122   0.0% |
Other:                               1.353     1.353   0.3% |
-----------------------------------------------------------
Total:                                       413.818 100.0%

Memory usage: 379.01 MiB
Date: Mon Feb  5 19:05:17 2018
