
  ___ ___ ___ _ _ _  
 |   |   |_  | | | | 
 | | | | | . | | | | 
 |__ |  _|___|_____|  1.3.0
 |___|_|             

User:   fantm@hebbe03-8
Date:   Tue Feb  6 11:26:39 2018
Arch:   x86_64
Pid:    12649
Python: 2.7.14
gpaw:   /apps/Hebbe/software/MPI/intel/2017.4.196-GCC-6.4.0-2.28/impi/2017.3.196/GPAW/1.3.0-Python-2.7.14/lib/python2.7/site-packages/gpaw
_gpaw:  /apps/Hebbe/software/MPI/intel/2017.4.196-GCC-6.4.0-2.28/impi/2017.3.196/GPAW/1.3.0-Python-2.7.14/bin/
       gpaw-python
ase:    /apps/Hebbe/software/MPI/intel/2017.4.196-GCC-6.4.0-2.28/impi/2017.3.196/ASE/3.15.0-Python-2.7.14/lib/python2.7/site-packages/ase-3.15.0-py2.7.egg/ase (version 3.15.0)
numpy:  /apps/Hebbe/software/MPI/intel/2017.4.196-GCC-6.4.0-2.28/impi/2017.3.196/Python/2.7.14/lib/python2.7/site-packages/numpy-1.13.1-py2.7-linux-x86_64.egg/numpy (version 1.13.1)
scipy:  /apps/Hebbe/software/MPI/intel/2017.4.196-GCC-6.4.0-2.28/impi/2017.3.196/Python/2.7.14/lib/python2.7/site-packages/scipy-0.19.1-py2.7-linux-x86_64.egg/scipy (version 0.19.1)
units:  Angstrom and eV
cores:  12

Input parameters:
  basis: dzp
  eigensolver: rmm-diis
  kpts: [16 16  1]
  mode: {ecut: 650.0,
         name: pw}
  xc: PBE

System changes: positions, numbers, cell, pbc, initial_charges, initial_magmoms 

Initialize ...

Al-setup:
  name: Aluminium
  id: 0292cae29f5d6237e50f6abdd43a7bdd
  Z: 13
  valence: 3
  core: 10
  charge: 0.0
  file: /c3se/apps/Glenn/gpaw/gpaw-setups-0.9.11271/Al.PBE.gz
  cutoffs: 1.08(comp), 1.91(filt), 2.36(core), lmax=2
  valence states:
                energy  radius
    3s(2.00)    -7.753   1.085
    3p(1.00)    -2.712   1.085
    *s          19.459   1.085
    *p          24.499   1.085
    *d           0.000   1.085

  LCAO basis set for Al:
    Name: dzp
    File: /c3se/apps/Glenn/gpaw/gpaw-setups-0.9.11271/Al.dzp.basis.gz
    Number of radial functions: 5
    Number of spherical harmonics: 13
      l=0, rc=7.8750 Bohr: 3s-sz confined orbital
      l=1, rc=10.4219 Bohr: 3p-sz confined orbital
      l=0, rc=4.6094 Bohr: 3s-dz split-valence wave
      l=1, rc=6.2812 Bohr: 3p-dz split-valence wave
      l=2, rc=10.4219 Bohr: d-type Gaussian polarization

Reference energy: -59430.809384

Spin-paired calculation

Occupation numbers:
  Fermi-Dirac: width=0.1000 eV

Convergence criteria:
  Maximum total energy change: 0.0005 eV / electron
  Maximum integral of absolute density change: 0.0001 electrons
  Maximum integral of absolute eigenstate change: 4e-08 eV^2
  Maximum number of iterations: 333

Symmetries present (total): 8

  ( 1  0  0)  ( 1  0  0)  ( 0  1  0)  ( 0  1  0)  ( 0 -1  0)  ( 0 -1  0)
  ( 0  1  0)  ( 0 -1  0)  ( 1  0  0)  (-1  0  0)  ( 1  0  0)  (-1  0  0)
  ( 0  0  1)  ( 0  0  1)  ( 0  0  1)  ( 0  0  1)  ( 0  0  1)  ( 0  0  1)

  (-1  0  0)  (-1  0  0)
  ( 0  1  0)  ( 0 -1  0)
  ( 0  0  1)  ( 0  0  1)

256 k-points: 16 x 16 x 1 Monkhorst-Pack grid
36 k-points in the irreducible part of the Brillouin zone
       k-points in crystal coordinates                weights
   0:     0.03125000    0.03125000    0.00000000          4/256
   1:     0.09375000    0.03125000    0.00000000          8/256
   2:     0.09375000    0.09375000    0.00000000          4/256
   3:     0.15625000    0.03125000    0.00000000          8/256
   4:     0.15625000    0.09375000    0.00000000          8/256
   5:     0.15625000    0.15625000    0.00000000          4/256
   6:     0.21875000    0.03125000    0.00000000          8/256
   7:     0.21875000    0.09375000    0.00000000          8/256
   8:     0.21875000    0.15625000    0.00000000          8/256
   9:     0.21875000    0.21875000    0.00000000          4/256
          ...
  35:     0.46875000    0.46875000    0.00000000          4/256

Wave functions: Plane wave expansion
  Cutoff energy: 650.000 eV
  Number of coefficients (min, max): 9534, 9677
  Using FFTW library
  Eigensolver: None  MatrixOperator buffer_size: default value or 
                              see value of nblock in input file
Diagonalizer layout: Serial LAPACKOrthonormalizer layout: Serial LAPACK 

RMM-DIIS eigensolver
       keep_htpsit: True
       Block size: 10
       DIIS iterations: 3
       Threshold for DIIS: 1.0e-16
       Limit lambda: False
       use_rayleigh: False
       trial_step: 0.1 

Densities:
  Coarse grid: 18*18*189 grid
  Fine grid: 36*36*378 grid
  Total Charge: 0.000000 

Density mixing:
  Method: separate
  Backend: pulay
  Linear mixing parameter: 0.05
  Mixing with 5 old densities
  Damping of long wave oscillations: 50 

Hamiltonian:
  XC and Coulomb potentials evaluated on a 36*36*378 grid
  Using the PBE Exchange-Correlation functional
 

Memory estimate:
  Process memory now: 245.10 MiB
  Calculator: 69.37 MiB
    Density: 27.95 MiB
      Arrays: 12.15 MiB
      Localized functions: 11.13 MiB
      Mixer: 4.67 MiB
    Hamiltonian: 8.17 MiB
      Arrays: 7.94 MiB
      XC: 0.00 MiB
      Poisson: 0.00 MiB
      vbar: 0.23 MiB
    Wavefunctions: 33.25 MiB
      Arrays psit_nG: 15.95 MiB
      Eigensolver: 6.05 MiB
      Projections: 0.19 MiB
      Projectors: 3.06 MiB
      Overlap op: 5.34 MiB
      PW-descriptor: 2.66 MiB

Total number of cores used: 12
Parallelization over k-points: 12

Number of atoms: 9
Number of atomic orbitals: 117
Number of bands in calculation: 36
Bands to converge: occupied states only
Number of valence electrons: 27

... initialized

Initializing position-dependent things.

Density initialized from atomic densities
Creating initial wave functions:
  36 bands from LCAO basis set

   .------.  
  /|      |  
 * |      |  
 | |      |  
 | |      |  
 | |      |  
 | |      |  
 | |      |  
 | |      |  
 | |      |  
 | |      |  
 Al|      |  
 | |      |  
 | | Al   |  
 | |      |  
 | |      |  
 Al|      |  
 | |      |  
 | | Al   |  
 | |      |  
 | |      |  
 Al|      |  
 | | Al   |  
 | |      |  
 | |      |  
 | |      |  
 Al|      |  
 | | Al   |  
 | |      |  
 | |      |  
 | |      |  
 Al|      |  
 | |      |  
 | |      |  
 | |      |  
 | |      |  
 | |      |  
 | |      |  
 | .------.  
 |/      /   
 *------*    

Positions:
   0 Al     0.000000    0.000000    7.500000
   1 Al     1.429770    1.429770    9.522000
   2 Al     0.000000    0.000000   11.544000
   3 Al     1.429770    1.429770   13.566000
   4 Al     0.000000    0.000000   15.588000
   5 Al     1.429770    1.429770   17.610000
   6 Al     0.000000    0.000000   19.632000
   7 Al     1.429770    1.429770   21.654000
   8 Al     0.000000    0.000000   23.676000

Unit cell:
           periodic     x           y           z      points  spacing
  1. axis:    yes    2.859540    0.000000    0.000000    18     0.1589
  2. axis:    yes    0.000000    2.859540    0.000000    18     0.1589
  3. axis:    no     0.000000    0.000000   31.176000   189     0.1650

  Lengths:   2.859540   2.859540  31.176000
  Angles:   90.000000  90.000000  90.000000

Effective grid spacing dv^(1/3) = 0.1609

                     log10-error:    total        iterations:
           time      wfs    density  energy       fermi  poisson
iter:   1  11:26:56  +1.27   +inf   -32.115338    2             
iter:   2  11:26:58  -2.20   +inf   -32.842898    3             
iter:   3  11:27:00  -3.37   +inf   -32.846936    2             
iter:   4  11:27:04  -3.35  -0.89   -32.786994    33            
iter:   5  11:27:07  -3.53  -0.94   -32.746496    3             
iter:   6  11:27:10  -2.35  -0.95   -32.712349    33            
iter:   7  11:27:14  -2.16  -1.15   -32.705811    2             
iter:   8  11:27:17  -2.80  -1.51   -32.670004    2             
iter:   9  11:27:20  -3.28  -1.86   -32.652120    3             
iter:  10  11:27:23  -4.46  -2.09   -32.652039    2             
iter:  11  11:27:27  -3.64  -2.16   -32.648952    2             
iter:  12  11:27:30  -5.01  -2.62   -32.649259    2             
iter:  13  11:27:33  -5.20  -2.68   -32.649231    2             
iter:  14  11:27:37  -5.81  -2.76   -32.649217    2             
iter:  15  11:27:40  -5.77  -2.82   -32.649316    2             
iter:  16  11:27:43  -6.43  -2.87   -32.649269    1             
iter:  17  11:27:46  -6.25  -2.92   -32.649209    2             
iter:  18  11:27:50  -6.74  -3.15   -32.649192    2             
iter:  19  11:27:53  -6.53  -3.18   -32.649174    2             
iter:  20  11:27:56  -7.03  -3.45   -32.649174    2             
iter:  21  11:28:00  -7.54  -3.52   -32.649176    2             
iter:  22  11:28:03  -8.15  -3.54   -32.649183    1             
iter:  23  11:28:06  -7.04  -3.45   -32.649178    2             
iter:  24  11:28:09  -7.51  -3.69   -32.649181    2             
iter:  25  11:28:13  -8.32  -3.74   -32.649178    2             
iter:  26  11:28:16  -8.00  -3.85   -32.649177    1             
iter:  27  11:28:19  -8.27  -3.99   -32.649177    1             
iter:  28  11:28:22  -9.12  -4.09   -32.649178    1             

Converged after 28 iterations.

Dipole moment: (-0.000000, -0.000000, 0.000129) |e|*Ang

Energy contributions relative to reference atoms: (reference = -59430.809384)

Kinetic:        +28.856651
Potential:      -13.801286
External:        +0.000000
XC:             -47.585698
Entropy (-ST):   -0.134221
Local:           -0.051735
--------------------------
Free energy:    -32.716288
Extrapolated:   -32.649178

Fermi level: 2.43950

Warning: Showing only first 2 kpts
 Kpt  Band  Eigenvalues  Occupancy
  0    11      3.97959    0.00000
  0    12      5.41272    0.00000
  0    13      6.39959    0.00000
  0    14      6.71035    0.00000

  1    11      4.10315    0.00000
  1    12      5.44770    0.00000
  1    13      5.53304    0.00000
  1    14      5.73879    0.00000


Timing:                              incl.     excl.
-----------------------------------------------------------
Hamiltonian:                         0.502     0.002   0.0% |
 Atomic:                             0.053     0.053   0.1% |
  XC Correction:                     0.000     0.000   0.0% |
 Calculate atomic Hamiltonians:      0.169     0.169   0.2% |
 Communicate:                        0.000     0.000   0.0% |
 Initialize Hamiltonian:             0.000     0.000   0.0% |
 Poisson:                            0.003     0.003   0.0% |
 XC 3D grid:                         0.275     0.275   0.3% |
LCAO initialization:                11.849     0.074   0.1% |
 LCAO eigensolver:                   8.524     0.000   0.0% |
  Calculate projections:             0.001     0.001   0.0% |
  DenseAtomicCorrection:             0.002     0.002   0.0% |
  Distribute overlap matrix:         0.000     0.000   0.0% |
  Orbital Layouts:                   0.013     0.013   0.0% |
  Potential matrix:                  8.497     8.497   8.2% |--|
  Sum over cells:                    0.010     0.010   0.0% |
 LCAO to grid:                       1.163     1.163   1.1% |
 Set positions (LCAO WFS):           2.088     0.000   0.0% |
  Basic WFS set positions:           0.002     0.002   0.0% |
  Basis functions set positions:     0.000     0.000   0.0% |
  TCI: Calculate S, T, P:            2.086     2.086   2.0% ||
PWDescriptor:                        0.010     0.010   0.0% |
SCF-cycle:                          90.198     6.057   5.8% |-|
 Density:                           13.605     0.001   0.0% |
  Atomic density matrices:           0.073     0.073   0.1% |
  Mix:                               6.632     6.632   6.4% |--|
  Multipole moments:                 0.007     0.007   0.0% |
  Pseudo density:                    6.893     6.200   6.0% |-|
   Symmetrize density:               0.694     0.694   0.7% |
 Hamiltonian:                       10.474     0.043   0.0% |
  Atomic:                            1.316     1.316   1.3% ||
   XC Correction:                    0.000     0.000   0.0% |
  Calculate atomic Hamiltonians:     2.217     2.217   2.1% ||
  Communicate:                       0.004     0.004   0.0% |
  Poisson:                           0.048     0.048   0.0% |
  XC 3D grid:                        6.845     6.845   6.6% |--|
 Orthonormalize:                     2.661     0.004   0.0% |
  Band Layouts:                      0.005     0.001   0.0% |
   Inverse Cholesky:                 0.005     0.005   0.0% |
  calc_s_matrix:                     0.209     0.209   0.2% |
  projections:                       2.143     2.143   2.1% ||
  rotate_psi:                        0.300     0.300   0.3% |
 RMM-DIIS:                          49.324     7.473   7.2% |--|
  Calculate residuals:               8.244     8.244   7.9% |--|
  DIIS step:                        22.800     0.378   0.4% |
   Calculate residuals:             19.518    19.518  18.8% |-------|
   Construct matrix:                 0.395     0.395   0.4% |
   Linear solve:                     0.089     0.089   0.1% |
   Update trial vectors:             0.485     0.485   0.5% |
   precondition:                     1.935     1.935   1.9% ||
  Find lambda:                       0.276     0.276   0.3% |
  Update psi:                        0.187     0.187   0.2% |
  precondition:                      4.079     4.079   3.9% |-|
  projections:                       6.264     6.264   6.0% |-|
 Subspace diag:                      8.078     0.005   0.0% |
  Band Layouts:                      0.028     0.001   0.0% |
   Diagonalize:                      0.026     0.026   0.0% |
   Distribute results:               0.001     0.001   0.0% |
  calc_h_matrix:                     7.451     7.451   7.2% |--|
  rotate_psi:                        0.593     0.593   0.6% |
Set symmetry:                        0.123     0.123   0.1% |
Other:                               1.225     1.225   1.2% |
-----------------------------------------------------------
Total:                                       103.907 100.0%

Memory usage: 311.65 MiB
Date: Tue Feb  6 11:28:23 2018
