
  ___ ___ ___ _ _ _  
 |   |   |_  | | | | 
 | | | | | . | | | | 
 |__ |  _|___|_____|  1.3.0
 |___|_|             

User:   fantm@hebbe03-8
Date:   Tue Feb  6 11:25:14 2018
Arch:   x86_64
Pid:    12649
Python: 2.7.14
gpaw:   /apps/Hebbe/software/MPI/intel/2017.4.196-GCC-6.4.0-2.28/impi/2017.3.196/GPAW/1.3.0-Python-2.7.14/lib/python2.7/site-packages/gpaw
_gpaw:  /apps/Hebbe/software/MPI/intel/2017.4.196-GCC-6.4.0-2.28/impi/2017.3.196/GPAW/1.3.0-Python-2.7.14/bin/
       gpaw-python
ase:    /apps/Hebbe/software/MPI/intel/2017.4.196-GCC-6.4.0-2.28/impi/2017.3.196/ASE/3.15.0-Python-2.7.14/lib/python2.7/site-packages/ase-3.15.0-py2.7.egg/ase (version 3.15.0)
numpy:  /apps/Hebbe/software/MPI/intel/2017.4.196-GCC-6.4.0-2.28/impi/2017.3.196/Python/2.7.14/lib/python2.7/site-packages/numpy-1.13.1-py2.7-linux-x86_64.egg/numpy (version 1.13.1)
scipy:  /apps/Hebbe/software/MPI/intel/2017.4.196-GCC-6.4.0-2.28/impi/2017.3.196/Python/2.7.14/lib/python2.7/site-packages/scipy-0.19.1-py2.7-linux-x86_64.egg/scipy (version 0.19.1)
units:  Angstrom and eV
cores:  12

Input parameters:
  basis: dzp
  eigensolver: rmm-diis
  kpts: [16 16  1]
  mode: {ecut: 650.0,
         name: pw}
  xc: PBE

System changes: positions, numbers, cell, pbc, initial_charges, initial_magmoms 

Initialize ...

Al-setup:
  name: Aluminium
  id: 0292cae29f5d6237e50f6abdd43a7bdd
  Z: 13
  valence: 3
  core: 10
  charge: 0.0
  file: /c3se/apps/Glenn/gpaw/gpaw-setups-0.9.11271/Al.PBE.gz
  cutoffs: 1.08(comp), 1.91(filt), 2.36(core), lmax=2
  valence states:
                energy  radius
    3s(2.00)    -7.753   1.085
    3p(1.00)    -2.712   1.085
    *s          19.459   1.085
    *p          24.499   1.085
    *d           0.000   1.085

  LCAO basis set for Al:
    Name: dzp
    File: /c3se/apps/Glenn/gpaw/gpaw-setups-0.9.11271/Al.dzp.basis.gz
    Number of radial functions: 5
    Number of spherical harmonics: 13
      l=0, rc=7.8750 Bohr: 3s-sz confined orbital
      l=1, rc=10.4219 Bohr: 3p-sz confined orbital
      l=0, rc=4.6094 Bohr: 3s-dz split-valence wave
      l=1, rc=6.2812 Bohr: 3p-dz split-valence wave
      l=2, rc=10.4219 Bohr: d-type Gaussian polarization

Reference energy: -33017.116324

Spin-paired calculation

Occupation numbers:
  Fermi-Dirac: width=0.1000 eV

Convergence criteria:
  Maximum total energy change: 0.0005 eV / electron
  Maximum integral of absolute density change: 0.0001 electrons
  Maximum integral of absolute eigenstate change: 4e-08 eV^2
  Maximum number of iterations: 333

Symmetries present (total): 8

  ( 1  0  0)  ( 1  0  0)  ( 0  1  0)  ( 0  1  0)  ( 0 -1  0)  ( 0 -1  0)
  ( 0  1  0)  ( 0 -1  0)  ( 1  0  0)  (-1  0  0)  ( 1  0  0)  (-1  0  0)
  ( 0  0  1)  ( 0  0  1)  ( 0  0  1)  ( 0  0  1)  ( 0  0  1)  ( 0  0  1)

  (-1  0  0)  (-1  0  0)
  ( 0  1  0)  ( 0 -1  0)
  ( 0  0  1)  ( 0  0  1)

256 k-points: 16 x 16 x 1 Monkhorst-Pack grid
36 k-points in the irreducible part of the Brillouin zone
       k-points in crystal coordinates                weights
   0:     0.03125000    0.03125000    0.00000000          4/256
   1:     0.09375000    0.03125000    0.00000000          8/256
   2:     0.09375000    0.09375000    0.00000000          4/256
   3:     0.15625000    0.03125000    0.00000000          8/256
   4:     0.15625000    0.09375000    0.00000000          8/256
   5:     0.15625000    0.15625000    0.00000000          4/256
   6:     0.21875000    0.03125000    0.00000000          8/256
   7:     0.21875000    0.09375000    0.00000000          8/256
   8:     0.21875000    0.15625000    0.00000000          8/256
   9:     0.21875000    0.21875000    0.00000000          4/256
          ...
  35:     0.46875000    0.46875000    0.00000000          4/256

Wave functions: Plane wave expansion
  Cutoff energy: 650.000 eV
  Number of coefficients (min, max): 7056, 7174
  Using FFTW library
  Eigensolver: None  MatrixOperator buffer_size: default value or 
                              see value of nblock in input file
Diagonalizer layout: Serial LAPACKOrthonormalizer layout: Serial LAPACK 

RMM-DIIS eigensolver
       keep_htpsit: True
       Block size: 10
       DIIS iterations: 3
       Threshold for DIIS: 1.0e-16
       Limit lambda: False
       use_rayleigh: False
       trial_step: 0.1 

Densities:
  Coarse grid: 18*18*140 grid
  Fine grid: 36*36*280 grid
  Total Charge: 0.000000 

Density mixing:
  Method: separate
  Backend: pulay
  Linear mixing parameter: 0.05
  Mixing with 5 old densities
  Damping of long wave oscillations: 50 

Hamiltonian:
  XC and Coulomb potentials evaluated on a 36*36*280 grid
  Using the PBE Exchange-Correlation functional
 

Memory estimate:
  Process memory now: 155.57 MiB
  Calculator: 42.56 MiB
    Density: 20.71 MiB
      Arrays: 9.00 MiB
      Localized functions: 8.25 MiB
      Mixer: 3.46 MiB
    Hamiltonian: 6.05 MiB
      Arrays: 5.88 MiB
      XC: 0.00 MiB
      Poisson: 0.00 MiB
      vbar: 0.17 MiB
    Wavefunctions: 15.80 MiB
      Arrays psit_nG: 6.57 MiB
      Eigensolver: 2.74 MiB
      Projections: 0.06 MiB
      Projectors: 2.26 MiB
      Overlap op: 2.20 MiB
      PW-descriptor: 1.97 MiB

Total number of cores used: 12
Parallelization over k-points: 12

Number of atoms: 5
Number of atomic orbitals: 65
Number of bands in calculation: 20
Bands to converge: occupied states only
Number of valence electrons: 15

... initialized

Initializing position-dependent things.

Density initialized from atomic densities
Creating initial wave functions:
  20 bands from LCAO basis set

   .------.  
  /|      |  
 * |      |  
 | |      |  
 | |      |  
 | |      |  
 | |      |  
 | |      |  
 | |      |  
 | |      |  
 | |      |  
 Al|      |  
 | |      |  
 | | Al   |  
 | |      |  
 | |      |  
 Al|      |  
 | | Al   |  
 | |      |  
 | |      |  
 | |      |  
 Al|      |  
 | |      |  
 | |      |  
 | |      |  
 | |      |  
 | |      |  
 | |      |  
 | .------.  
 |/      /   
 *------*    

Positions:
   0 Al     0.000000    0.000000    7.500000
   1 Al     1.429770    1.429770    9.522000
   2 Al     0.000000    0.000000   11.544000
   3 Al     1.429770    1.429770   13.566000
   4 Al     0.000000    0.000000   15.588000

Unit cell:
           periodic     x           y           z      points  spacing
  1. axis:    yes    2.859540    0.000000    0.000000    18     0.1589
  2. axis:    yes    0.000000    2.859540    0.000000    18     0.1589
  3. axis:    no     0.000000    0.000000   23.088000   140     0.1649

  Lengths:   2.859540   2.859540  23.088000
  Angles:   90.000000  90.000000  90.000000

Effective grid spacing dv^(1/3) = 0.1609

                     log10-error:    total        iterations:
           time      wfs    density  energy       fermi  poisson
iter:   1  11:25:22  +1.25   +inf   -17.501475    3             
iter:   2  11:25:23  -2.10   +inf   -17.905275    3             
iter:   3  11:25:24  -3.28   +inf   -17.908125    2             
iter:   4  11:25:25  -3.33  -0.87   -17.785171    3             
iter:   5  11:25:26  -3.02  -0.93   -17.748369    3             
iter:   6  11:25:28  -1.68  -1.01   -17.754628    4             
iter:   7  11:25:29  -2.36  -1.36   -17.745607    2             
iter:   8  11:25:30  -3.22  -1.63   -17.724688    4             
iter:   9  11:25:32  -3.82  -1.98   -17.722168    3             
iter:  10  11:25:33  -3.82  -2.25   -17.721278    3             
iter:  11  11:25:34  -5.17  -2.80   -17.721415    2             
iter:  12  11:25:35  -5.01  -2.82   -17.721411    3             
iter:  13  11:25:37  -6.08  -3.15   -17.721404    2             
iter:  14  11:25:38  -6.92  -3.45   -17.721399    2             
iter:  15  11:25:39  -7.00  -3.63   -17.721395    2             
iter:  16  11:25:41  -6.95  -3.84   -17.721392    2             
iter:  17  11:25:42  -7.96  -4.08   -17.721391    2             

Converged after 17 iterations.

Dipole moment: (-0.000000, -0.000000, -0.000000) |e|*Ang

Energy contributions relative to reference atoms: (reference = -33017.116324)

Kinetic:        +14.436717
Potential:       -7.001366
External:        +0.000000
XC:             -25.090848
Entropy (-ST):   -0.078267
Local:           -0.026761
--------------------------
Free energy:    -17.760525
Extrapolated:   -17.721391

Fermi level: 0.71939

Warning: Showing only first 2 kpts
 Kpt  Band  Eigenvalues  Occupancy
  0     5     -1.27854    0.03125
  0     6      1.82025    0.00000
  0     7      3.89064    0.00000
  0     8      4.73689    0.00000

  1     5     -1.14763    0.06250
  1     6      1.94658    0.00000
  1     7      3.99036    0.00000
  1     8      4.01580    0.00000


Timing:                              incl.     excl.
-----------------------------------------------------------
Hamiltonian:                         0.366     0.002   0.0% |
 Atomic:                             0.052     0.052   0.2% |
  XC Correction:                     0.000     0.000   0.0% |
 Calculate atomic Hamiltonians:      0.106     0.106   0.4% |
 Communicate:                        0.000     0.000   0.0% |
 Initialize Hamiltonian:             0.000     0.000   0.0% |
 Poisson:                            0.002     0.002   0.0% |
 XC 3D grid:                         0.203     0.203   0.7% |
LCAO initialization:                 5.379     0.074   0.3% |
 LCAO eigensolver:                   3.960     0.000   0.0% |
  Calculate projections:             0.000     0.000   0.0% |
  DenseAtomicCorrection:             0.001     0.001   0.0% |
  Distribute overlap matrix:         0.000     0.000   0.0% |
  Orbital Layouts:                   0.004     0.004   0.0% |
  Potential matrix:                  3.951     3.951  14.3% |-----|
  Sum over cells:                    0.004     0.004   0.0% |
 LCAO to grid:                       0.397     0.397   1.4% ||
 Set positions (LCAO WFS):           0.948     0.000   0.0% |
  Basic WFS set positions:           0.001     0.001   0.0% |
  Basis functions set positions:     0.000     0.000   0.0% |
  TCI: Calculate S, T, P:            0.947     0.947   3.4% ||
PWDescriptor:                        0.007     0.007   0.0% |
SCF-cycle:                          20.861     1.679   6.1% |-|
 Density:                            3.384     0.000   0.0% |
  Atomic density matrices:           0.028     0.028   0.1% |
  Mix:                               1.634     1.634   5.9% |-|
  Multipole moments:                 0.003     0.003   0.0% |
  Pseudo density:                    1.718     1.430   5.2% |-|
   Symmetrize density:               0.288     0.288   1.0% |
 Hamiltonian:                        4.208     0.016   0.1% |
  Atomic:                            0.745     0.745   2.7% ||
   XC Correction:                    0.000     0.000   0.0% |
  Calculate atomic Hamiltonians:     0.596     0.596   2.2% ||
  Communicate:                       0.001     0.001   0.0% |
  Poisson:                           0.020     0.020   0.1% |
  XC 3D grid:                        2.829     2.829  10.2% |---|
 Orthonormalize:                     0.576     0.002   0.0% |
  Band Layouts:                      0.002     0.000   0.0% |
   Inverse Cholesky:                 0.002     0.002   0.0% |
  calc_s_matrix:                     0.040     0.040   0.1% |
  projections:                       0.478     0.478   1.7% ||
  rotate_psi:                        0.054     0.054   0.2% |
 RMM-DIIS:                           9.121     1.803   6.5% |--|
  Calculate residuals:               1.257     1.257   4.6% |-|
  DIIS step:                         4.124     0.089   0.3% |
   Calculate residuals:              3.306     3.306  12.0% |----|
   Construct matrix:                 0.101     0.101   0.4% |
   Linear solve:                     0.029     0.029   0.1% |
   Update trial vectors:             0.121     0.121   0.4% |
   precondition:                     0.478     0.478   1.7% ||
  Find lambda:                       0.068     0.068   0.2% |
  Update psi:                        0.037     0.037   0.1% |
  precondition:                      1.020     1.020   3.7% ||
  projections:                       0.812     0.812   2.9% ||
 Subspace diag:                      1.892     0.003   0.0% |
  Band Layouts:                      0.008     0.001   0.0% |
   Diagonalize:                      0.007     0.007   0.0% |
   Distribute results:               0.001     0.001   0.0% |
  calc_h_matrix:                     1.788     1.788   6.5% |--|
  rotate_psi:                        0.094     0.094   0.3% |
Set symmetry:                        0.121     0.121   0.4% |
Other:                               0.869     0.869   3.1% ||
-----------------------------------------------------------
Total:                                        27.602 100.0%

Memory usage: 201.96 MiB
Date: Tue Feb  6 11:25:42 2018
