
  ___ ___ ___ _ _ _  
 |   |   |_  | | | | 
 | | | | | . | | | | 
 |__ |  _|___|_____|  1.3.0
 |___|_|             

User:   fantm@hebbe03-8
Date:   Tue Feb  6 11:30:41 2018
Arch:   x86_64
Pid:    12649
Python: 2.7.14
gpaw:   /apps/Hebbe/software/MPI/intel/2017.4.196-GCC-6.4.0-2.28/impi/2017.3.196/GPAW/1.3.0-Python-2.7.14/lib/python2.7/site-packages/gpaw
_gpaw:  /apps/Hebbe/software/MPI/intel/2017.4.196-GCC-6.4.0-2.28/impi/2017.3.196/GPAW/1.3.0-Python-2.7.14/bin/
       gpaw-python
ase:    /apps/Hebbe/software/MPI/intel/2017.4.196-GCC-6.4.0-2.28/impi/2017.3.196/ASE/3.15.0-Python-2.7.14/lib/python2.7/site-packages/ase-3.15.0-py2.7.egg/ase (version 3.15.0)
numpy:  /apps/Hebbe/software/MPI/intel/2017.4.196-GCC-6.4.0-2.28/impi/2017.3.196/Python/2.7.14/lib/python2.7/site-packages/numpy-1.13.1-py2.7-linux-x86_64.egg/numpy (version 1.13.1)
scipy:  /apps/Hebbe/software/MPI/intel/2017.4.196-GCC-6.4.0-2.28/impi/2017.3.196/Python/2.7.14/lib/python2.7/site-packages/scipy-0.19.1-py2.7-linux-x86_64.egg/scipy (version 0.19.1)
units:  Angstrom and eV
cores:  12

Input parameters:
  basis: dzp
  eigensolver: rmm-diis
  kpts: [16 16  1]
  mode: {ecut: 650.0,
         name: pw}
  xc: PBE

System changes: positions, numbers, cell, pbc, initial_charges, initial_magmoms 

Initialize ...

Al-setup:
  name: Aluminium
  id: 0292cae29f5d6237e50f6abdd43a7bdd
  Z: 13
  valence: 3
  core: 10
  charge: 0.0
  file: /c3se/apps/Glenn/gpaw/gpaw-setups-0.9.11271/Al.PBE.gz
  cutoffs: 1.08(comp), 1.91(filt), 2.36(core), lmax=2
  valence states:
                energy  radius
    3s(2.00)    -7.753   1.085
    3p(1.00)    -2.712   1.085
    *s          19.459   1.085
    *p          24.499   1.085
    *d           0.000   1.085

  LCAO basis set for Al:
    Name: dzp
    File: /c3se/apps/Glenn/gpaw/gpaw-setups-0.9.11271/Al.dzp.basis.gz
    Number of radial functions: 5
    Number of spherical harmonics: 13
      l=0, rc=7.8750 Bohr: 3s-sz confined orbital
      l=1, rc=10.4219 Bohr: 3p-sz confined orbital
      l=0, rc=4.6094 Bohr: 3s-dz split-valence wave
      l=1, rc=6.2812 Bohr: 3p-dz split-valence wave
      l=2, rc=10.4219 Bohr: d-type Gaussian polarization

Reference energy: -85844.502444

Spin-paired calculation

Occupation numbers:
  Fermi-Dirac: width=0.1000 eV

Convergence criteria:
  Maximum total energy change: 0.0005 eV / electron
  Maximum integral of absolute density change: 0.0001 electrons
  Maximum integral of absolute eigenstate change: 4e-08 eV^2
  Maximum number of iterations: 333

Symmetries present (total): 8

  ( 1  0  0)  ( 1  0  0)  ( 0  1  0)  ( 0  1  0)  ( 0 -1  0)  ( 0 -1  0)
  ( 0  1  0)  ( 0 -1  0)  ( 1  0  0)  (-1  0  0)  ( 1  0  0)  (-1  0  0)
  ( 0  0  1)  ( 0  0  1)  ( 0  0  1)  ( 0  0  1)  ( 0  0  1)  ( 0  0  1)

  (-1  0  0)  (-1  0  0)
  ( 0  1  0)  ( 0 -1  0)
  ( 0  0  1)  ( 0  0  1)

256 k-points: 16 x 16 x 1 Monkhorst-Pack grid
36 k-points in the irreducible part of the Brillouin zone
       k-points in crystal coordinates                weights
   0:     0.03125000    0.03125000    0.00000000          4/256
   1:     0.09375000    0.03125000    0.00000000          8/256
   2:     0.09375000    0.09375000    0.00000000          4/256
   3:     0.15625000    0.03125000    0.00000000          8/256
   4:     0.15625000    0.09375000    0.00000000          8/256
   5:     0.15625000    0.15625000    0.00000000          4/256
   6:     0.21875000    0.03125000    0.00000000          8/256
   7:     0.21875000    0.09375000    0.00000000          8/256
   8:     0.21875000    0.15625000    0.00000000          8/256
   9:     0.21875000    0.21875000    0.00000000          4/256
          ...
  35:     0.46875000    0.46875000    0.00000000          4/256

Wave functions: Plane wave expansion
  Cutoff energy: 650.000 eV
  Number of coefficients (min, max): 12008, 12192
  Using FFTW library
  Eigensolver: None  MatrixOperator buffer_size: default value or 
                              see value of nblock in input file
Diagonalizer layout: Serial LAPACKOrthonormalizer layout: Serial LAPACK 

RMM-DIIS eigensolver
       keep_htpsit: True
       Block size: 10
       DIIS iterations: 3
       Threshold for DIIS: 1.0e-16
       Limit lambda: False
       use_rayleigh: False
       trial_step: 0.1 

Densities:
  Coarse grid: 18*18*240 grid
  Fine grid: 36*36*480 grid
  Total Charge: 0.000000 

Density mixing:
  Method: separate
  Backend: pulay
  Linear mixing parameter: 0.05
  Mixing with 5 old densities
  Damping of long wave oscillations: 50 

Hamiltonian:
  XC and Coulomb potentials evaluated on a 36*36*480 grid
  Using the PBE Exchange-Correlation functional
 

Memory estimate:
  Process memory now: 361.25 MiB
  Calculator: 103.07 MiB
    Density: 35.71 MiB
      Arrays: 15.42 MiB
      Localized functions: 14.35 MiB
      Mixer: 5.93 MiB
    Hamiltonian: 10.38 MiB
      Arrays: 10.09 MiB
      XC: 0.00 MiB
      Poisson: 0.00 MiB
      vbar: 0.29 MiB
    Wavefunctions: 56.98 MiB
      Arrays psit_nG: 29.02 MiB
      Eigensolver: 10.60 MiB
      Projections: 0.40 MiB
      Projectors: 3.85 MiB
      Overlap op: 9.72 MiB
      PW-descriptor: 3.38 MiB

Total number of cores used: 12
Parallelization over k-points: 12

Number of atoms: 13
Number of atomic orbitals: 169
Number of bands in calculation: 52
Bands to converge: occupied states only
Number of valence electrons: 39

... initialized

Initializing position-dependent things.

Density initialized from atomic densities
Creating initial wave functions:
  52 bands from LCAO basis set

   .------.  
  /|      |  
 * |      |  
 | |      |  
 | |      |  
 | |      |  
 | |      |  
 | |      |  
 | |      |  
 | |      |  
 | |      |  
 Al|      |  
 | |      |  
 | | Al   |  
 | |      |  
 | |      |  
 Al|      |  
 | |      |  
 | | Al   |  
 | |      |  
 | |      |  
 Al|      |  
 | |      |  
 | | Al   |  
 | |      |  
 | |      |  
 Al|      |  
 | | Al   |  
 | |      |  
 | |      |  
 | |      |  
 Al|      |  
 | | Al   |  
 | |      |  
 | |      |  
 | |      |  
 Al|      |  
 | | Al   |  
 | |      |  
 | |      |  
 | |      |  
 Al|      |  
 | |      |  
 | |      |  
 | |      |  
 | |      |  
 | |      |  
 | |      |  
 | .------.  
 |/      /   
 *------*    

Positions:
   0 Al     0.000000    0.000000    7.500000
   1 Al     1.429770    1.429770    9.522000
   2 Al     0.000000    0.000000   11.544000
   3 Al     1.429770    1.429770   13.566000
   4 Al     0.000000    0.000000   15.588000
   5 Al     1.429770    1.429770   17.610000
   6 Al     0.000000    0.000000   19.632000
   7 Al     1.429770    1.429770   21.654000
   8 Al     0.000000    0.000000   23.676000
   9 Al     1.429770    1.429770   25.698000
  10 Al     0.000000    0.000000   27.720000
  11 Al     1.429770    1.429770   29.742000
  12 Al     0.000000    0.000000   31.764000

Unit cell:
           periodic     x           y           z      points  spacing
  1. axis:    yes    2.859540    0.000000    0.000000    18     0.1589
  2. axis:    yes    0.000000    2.859540    0.000000    18     0.1589
  3. axis:    no     0.000000    0.000000   39.264000   240     0.1636

  Lengths:   2.859540   2.859540  39.264000
  Angles:   90.000000  90.000000  90.000000

Effective grid spacing dv^(1/3) = 0.1604

                     log10-error:    total        iterations:
           time      wfs    density  energy       fermi  poisson
iter:   1  11:31:09  +1.28   +inf   -46.764708    2             
iter:   2  11:31:14  -2.26   +inf   -47.814223    3             
iter:   3  11:31:19  -3.45   +inf   -47.819375    2             
iter:   4  11:31:26  -3.38  -0.90   -48.140991    29            
iter:   5  11:31:33  -3.50  -0.92   -48.120637    31            
iter:   6  11:31:40  -2.83  -0.91   -47.644998    34            
iter:   7  11:31:47  -2.25  -1.06   -47.763047    4             
iter:   8  11:31:53  -2.63  -1.33   -47.671181    3             
iter:   9  11:32:00  -3.72  -1.70   -47.646150    2             
iter:  10  11:32:07  -3.39  -1.84   -47.626621    3             
iter:  11  11:32:13  -4.09  -2.11   -47.622142    3             
iter:  12  11:32:20  -4.74  -2.23   -47.620245    3             
iter:  13  11:32:27  -4.73  -2.36   -47.650703    2             
iter:  14  11:32:34  -4.94  -1.84   -47.618778    2             
iter:  15  11:32:40  -5.55  -2.62   -47.618604    2             
iter:  16  11:32:47  -5.40  -2.69   -47.618496    2             
iter:  17  11:32:54  -5.71  -2.81   -47.618450    2             
iter:  18  11:33:00  -6.11  -2.91   -47.618740    3             
iter:  19  11:33:07  -6.07  -2.79   -47.619119    2             
iter:  20  11:33:14  -6.86  -2.67   -47.618563    2             
iter:  21  11:33:21  -6.62  -3.00   -47.618532    2             
iter:  22  11:33:27  -6.22  -3.14   -47.618530    2             
iter:  23  11:33:34  -6.32  -3.31   -47.618528    2             
iter:  24  11:33:41  -7.35  -3.43   -47.618568    2             
iter:  25  11:33:48  -7.33  -3.32   -47.618537    2             
iter:  26  11:33:54  -8.12  -3.44   -47.618537    2             
iter:  27  11:34:01  -7.59  -3.42   -47.618517    2             
iter:  28  11:34:08  -7.73  -3.78   -47.618513    2             
iter:  29  11:34:14  -7.93  -3.87   -47.618511    2             
iter:  30  11:34:21  -8.20  -3.93   -47.618521    2             
iter:  31  11:34:28  -8.32  -3.81   -47.618512    2             
iter:  32  11:34:35  -9.12  -3.97   -47.618513    2             
iter:  33  11:34:41  -8.55  -3.80   -47.618511    2             
iter:  34  11:34:48  -8.90  -4.18   -47.618510    2             

Converged after 34 iterations.

Dipole moment: (-0.000000, -0.000000, -0.000023) |e|*Ang

Energy contributions relative to reference atoms: (reference = -85844.502444)

Kinetic:        +43.260658
Potential:      -20.636407
External:        +0.000000
XC:             -70.070534
Entropy (-ST):   -0.175332
Local:           -0.084561
--------------------------
Free energy:    -47.706176
Extrapolated:   -47.618510

Fermi level: 3.38075

Warning: Showing only first 2 kpts
 Kpt  Band  Eigenvalues  Occupancy
  0    17      6.32273    0.00000
  0    18      7.11059    0.00000
  0    19      7.83542    0.00000
  0    20      7.84664    0.00000

  1    17      6.36214    0.00000
  1    18      6.43113    0.00000
  1    19      6.51260    0.00000
  1    20      6.73932    0.00000


Timing:                              incl.     excl.
-----------------------------------------------------------
Hamiltonian:                         0.688     0.002   0.0% |
 Atomic:                             0.094     0.047   0.0% |
  XC Correction:                     0.047     0.047   0.0% |
 Calculate atomic Hamiltonians:      0.240     0.240   0.1% |
 Communicate:                        0.000     0.000   0.0% |
 Initialize Hamiltonian:             0.000     0.000   0.0% |
 Poisson:                            0.003     0.003   0.0% |
 XC 3D grid:                         0.349     0.349   0.1% |
LCAO initialization:                18.684     0.072   0.0% |
 LCAO eigensolver:                  13.079     0.000   0.0% |
  Calculate projections:             0.002     0.002   0.0% |
  DenseAtomicCorrection:             0.005     0.005   0.0% |
  Distribute overlap matrix:         0.001     0.001   0.0% |
  Orbital Layouts:                   0.030     0.030   0.0% |
  Potential matrix:                 13.022    13.022   5.3% |-|
  Sum over cells:                    0.019     0.019   0.0% |
 LCAO to grid:                       2.328     2.328   0.9% |
 Set positions (LCAO WFS):           3.205     0.001   0.0% |
  Basic WFS set positions:           0.002     0.002   0.0% |
  Basis functions set positions:     0.000     0.000   0.0% |
  TCI: Calculate S, T, P:            3.202     3.202   1.3% ||
PWDescriptor:                        0.012     0.012   0.0% |
SCF-cycle:                         225.768    15.901   6.4% |--|
 Density:                           29.537     0.001   0.0% |
  Atomic density matrices:           0.117     0.117   0.0% |
  Mix:                              14.658    14.658   5.9% |-|
  Multipole moments:                 0.011     0.011   0.0% |
  Pseudo density:                   14.751    13.660   5.5% |-|
   Symmetrize density:               1.091     1.091   0.4% |
 Hamiltonian:                       18.814     0.056   0.0% |
  Atomic:                            2.934     1.464   0.6% |
   XC Correction:                    1.470     1.470   0.6% |
  Calculate atomic Hamiltonians:     4.962     4.962   2.0% ||
  Communicate:                       0.006     0.006   0.0% |
  Poisson:                           0.075     0.075   0.0% |
  XC 3D grid:                       10.780    10.780   4.4% |-|
 Orthonormalize:                     6.813     0.005   0.0% |
  Band Layouts:                      0.010     0.001   0.0% |
   Inverse Cholesky:                 0.009     0.009   0.0% |
  calc_s_matrix:                     0.593     0.593   0.2% |
  projections:                       5.376     5.376   2.2% ||
  rotate_psi:                        0.829     0.829   0.3% |
 RMM-DIIS:                         136.434    16.158   6.5% |--|
  Calculate residuals:              26.057    26.057  10.6% |---|
  DIIS step:                        63.800     0.834   0.3% |
   Calculate residuals:             56.739    56.739  23.0% |--------|
   Construct matrix:                 0.819     0.819   0.3% |
   Linear solve:                     0.151     0.151   0.1% |
   Update trial vectors:             1.042     1.042   0.4% |
   precondition:                     4.215     4.215   1.7% ||
  Find lambda:                       0.578     0.578   0.2% |
  Update psi:                        0.416     0.416   0.2% |
  precondition:                      8.839     8.839   3.6% ||
  projections:                      20.585    20.585   8.3% |--|
 Subspace diag:                     18.269     0.007   0.0% |
  Band Layouts:                      0.057     0.002   0.0% |
   Diagonalize:                      0.054     0.054   0.0% |
   Distribute results:               0.001     0.001   0.0% |
  calc_h_matrix:                    16.358    16.358   6.6% |--|
  rotate_psi:                        1.847     1.847   0.7% |
Set symmetry:                        0.121     0.121   0.0% |
Other:                               1.646     1.646   0.7% |
-----------------------------------------------------------
Total:                                       246.919 100.0%

Memory usage: 425.84 MiB
Date: Tue Feb  6 11:34:48 2018
