
  ___ ___ ___ _ _ _  
 |   |   |_  | | | | 
 | | | | | . | | | | 
 |__ |  _|___|_____|  1.3.0
 |___|_|             

User:   fantm@hebbe03-8
Date:   Tue Feb  6 11:52:38 2018
Arch:   x86_64
Pid:    12649
Python: 2.7.14
gpaw:   /apps/Hebbe/software/MPI/intel/2017.4.196-GCC-6.4.0-2.28/impi/2017.3.196/GPAW/1.3.0-Python-2.7.14/lib/python2.7/site-packages/gpaw
_gpaw:  /apps/Hebbe/software/MPI/intel/2017.4.196-GCC-6.4.0-2.28/impi/2017.3.196/GPAW/1.3.0-Python-2.7.14/bin/
       gpaw-python
ase:    /apps/Hebbe/software/MPI/intel/2017.4.196-GCC-6.4.0-2.28/impi/2017.3.196/ASE/3.15.0-Python-2.7.14/lib/python2.7/site-packages/ase-3.15.0-py2.7.egg/ase (version 3.15.0)
numpy:  /apps/Hebbe/software/MPI/intel/2017.4.196-GCC-6.4.0-2.28/impi/2017.3.196/Python/2.7.14/lib/python2.7/site-packages/numpy-1.13.1-py2.7-linux-x86_64.egg/numpy (version 1.13.1)
scipy:  /apps/Hebbe/software/MPI/intel/2017.4.196-GCC-6.4.0-2.28/impi/2017.3.196/Python/2.7.14/lib/python2.7/site-packages/scipy-0.19.1-py2.7-linux-x86_64.egg/scipy (version 0.19.1)
units:  Angstrom and eV
cores:  12

Input parameters:
  basis: dzp
  eigensolver: rmm-diis
  kpts: [16 16  1]
  mode: {ecut: 650.0,
         name: pw}
  xc: PBE

System changes: positions, numbers, cell, pbc, initial_charges, initial_magmoms 

Initialize ...

Al-setup:
  name: Aluminium
  id: 0292cae29f5d6237e50f6abdd43a7bdd
  Z: 13
  valence: 3
  core: 10
  charge: 0.0
  file: /c3se/apps/Glenn/gpaw/gpaw-setups-0.9.11271/Al.PBE.gz
  cutoffs: 1.08(comp), 1.91(filt), 2.36(core), lmax=2
  valence states:
                energy  radius
    3s(2.00)    -7.753   1.085
    3p(1.00)    -2.712   1.085
    *s          19.459   1.085
    *p          24.499   1.085
    *d           0.000   1.085

  LCAO basis set for Al:
    Name: dzp
    File: /c3se/apps/Glenn/gpaw/gpaw-setups-0.9.11271/Al.dzp.basis.gz
    Number of radial functions: 5
    Number of spherical harmonics: 13
      l=0, rc=7.8750 Bohr: 3s-sz confined orbital
      l=1, rc=10.4219 Bohr: 3p-sz confined orbital
      l=0, rc=4.6094 Bohr: 3s-dz split-valence wave
      l=1, rc=6.2812 Bohr: 3p-dz split-valence wave
      l=2, rc=10.4219 Bohr: d-type Gaussian polarization

Reference energy: -125465.042033

Spin-paired calculation

Occupation numbers:
  Fermi-Dirac: width=0.1000 eV

Convergence criteria:
  Maximum total energy change: 0.0005 eV / electron
  Maximum integral of absolute density change: 0.0001 electrons
  Maximum integral of absolute eigenstate change: 4e-08 eV^2
  Maximum number of iterations: 333

Symmetries present (total): 8

  ( 1  0  0)  ( 1  0  0)  ( 0  1  0)  ( 0  1  0)  ( 0 -1  0)  ( 0 -1  0)
  ( 0  1  0)  ( 0 -1  0)  ( 1  0  0)  (-1  0  0)  ( 1  0  0)  (-1  0  0)
  ( 0  0  1)  ( 0  0  1)  ( 0  0  1)  ( 0  0  1)  ( 0  0  1)  ( 0  0  1)

  (-1  0  0)  (-1  0  0)
  ( 0  1  0)  ( 0 -1  0)
  ( 0  0  1)  ( 0  0  1)

256 k-points: 16 x 16 x 1 Monkhorst-Pack grid
36 k-points in the irreducible part of the Brillouin zone
       k-points in crystal coordinates                weights
   0:     0.03125000    0.03125000    0.00000000          4/256
   1:     0.09375000    0.03125000    0.00000000          8/256
   2:     0.09375000    0.09375000    0.00000000          4/256
   3:     0.15625000    0.03125000    0.00000000          8/256
   4:     0.15625000    0.09375000    0.00000000          8/256
   5:     0.15625000    0.15625000    0.00000000          4/256
   6:     0.21875000    0.03125000    0.00000000          8/256
   7:     0.21875000    0.09375000    0.00000000          8/256
   8:     0.21875000    0.15625000    0.00000000          8/256
   9:     0.21875000    0.21875000    0.00000000          4/256
          ...
  35:     0.46875000    0.46875000    0.00000000          4/256

Wave functions: Plane wave expansion
  Cutoff energy: 650.000 eV
  Number of coefficients (min, max): 15726, 15960
  Using FFTW library
  Eigensolver: None  MatrixOperator buffer_size: default value or 
                              see value of nblock in input file
Diagonalizer layout: Serial LAPACKOrthonormalizer layout: Serial LAPACK 

RMM-DIIS eigensolver
       keep_htpsit: True
       Block size: 10
       DIIS iterations: 3
       Threshold for DIIS: 1.0e-16
       Limit lambda: False
       use_rayleigh: False
       trial_step: 0.1 

Densities:
  Coarse grid: 18*18*315 grid
  Fine grid: 36*36*630 grid
  Total Charge: 0.000000 

Density mixing:
  Method: separate
  Backend: pulay
  Linear mixing parameter: 0.05
  Mixing with 5 old densities
  Damping of long wave oscillations: 50 

Hamiltonian:
  XC and Coulomb potentials evaluated on a 36*36*630 grid
  Using the PBE Exchange-Correlation functional
 

Memory estimate:
  Process memory now: 530.55 MiB
  Calculator: 164.80 MiB
    Density: 46.99 MiB
      Arrays: 20.25 MiB
      Localized functions: 18.96 MiB
      Mixer: 7.79 MiB
    Hamiltonian: 13.62 MiB
      Arrays: 13.24 MiB
      XC: 0.00 MiB
      Poisson: 0.00 MiB
      vbar: 0.39 MiB
    Wavefunctions: 104.18 MiB
      Arrays psit_nG: 55.52 MiB
      Eigensolver: 19.73 MiB
      Projections: 0.86 MiB
      Projectors: 5.04 MiB
      Overlap op: 18.60 MiB
      PW-descriptor: 4.43 MiB

Total number of cores used: 12
Parallelization over k-points: 12

Number of atoms: 19
Number of atomic orbitals: 247
Number of bands in calculation: 76
Bands to converge: occupied states only
Number of valence electrons: 57

... initialized

Initializing position-dependent things.

Density initialized from atomic densities
Creating initial wave functions:
  76 bands from LCAO basis set

   .------.  
  /|      |  
 * |      |  
 | |      |  
 | |      |  
 | |      |  
 | |      |  
 | |      |  
 | |      |  
 | |      |  
 | |      |  
 Al|      |  
 | |      |  
 | | Al   |  
 | |      |  
 | |      |  
 Al|      |  
 | |      |  
 | | Al   |  
 | |      |  
 | |      |  
 Al|      |  
 | |      |  
 | | Al   |  
 | |      |  
 | |      |  
 Al|      |  
 | |      |  
 | | Al   |  
 | |      |  
 | |      |  
 Al|      |  
 | | Al   |  
 | |      |  
 | |      |  
 | |      |  
 Al|      |  
 | | Al   |  
 | |      |  
 | |      |  
 | |      |  
 Al|      |  
 | | Al   |  
 | |      |  
 | |      |  
 | |      |  
 Al|      |  
 | | Al   |  
 | |      |  
 | |      |  
 | |      |  
 Al|      |  
 | | Al   |  
 | |      |  
 | |      |  
 | |      |  
 Al|      |  
 | |      |  
 | |      |  
 | |      |  
 | |      |  
 | |      |  
 | |      |  
 | .------.  
 |/      /   
 *------*    

Positions:
   0 Al     0.000000    0.000000    7.500000
   1 Al     1.429770    1.429770    9.522000
   2 Al     0.000000    0.000000   11.544000
   3 Al     1.429770    1.429770   13.566000
   4 Al     0.000000    0.000000   15.588000
   5 Al     1.429770    1.429770   17.610000
   6 Al     0.000000    0.000000   19.632000
   7 Al     1.429770    1.429770   21.654000
   8 Al     0.000000    0.000000   23.676000
   9 Al     1.429770    1.429770   25.698000
  10 Al     0.000000    0.000000   27.720000
  11 Al     1.429770    1.429770   29.742000
  12 Al     0.000000    0.000000   31.764000
  13 Al     1.429770    1.429770   33.786000
  14 Al     0.000000    0.000000   35.808000
  15 Al     1.429770    1.429770   37.830000
  16 Al     0.000000    0.000000   39.852000
  17 Al     1.429770    1.429770   41.874000
  18 Al     0.000000    0.000000   43.896000

Unit cell:
           periodic     x           y           z      points  spacing
  1. axis:    yes    2.859540    0.000000    0.000000    18     0.1589
  2. axis:    yes    0.000000    2.859540    0.000000    18     0.1589
  3. axis:    no     0.000000    0.000000   51.396000   315     0.1632

  Lengths:   2.859540   2.859540  51.396000
  Angles:   90.000000  90.000000  90.000000

Effective grid spacing dv^(1/3) = 0.1603

                     log10-error:    total        iterations:
           time      wfs    density  energy       fermi  poisson
iter:   1  11:53:26  +1.29   +inf   -68.708908    2             
iter:   2  11:53:38  -2.32   +inf   -70.243004    3             
iter:   3  11:53:50  -3.47   +inf   -70.249587    2             
iter:   4  11:54:05  -3.35  -0.91   -71.839667    34            
iter:   5  11:54:20  -3.38  -0.88   -72.690502    34            
iter:   6  11:54:34  -3.16  -0.83   -70.752182    3             
iter:   7  11:54:49  -2.45  -0.96   -70.212587    3             
iter:   8  11:55:04  -2.61  -1.20   -70.230901    2             
iter:   9  11:55:19  -3.02  -1.46   -70.103823    3             
iter:  10  11:55:34  -3.70  -1.79   -70.060262    2             
iter:  11  11:55:49  -3.76  -1.99   -70.041641    3             
iter:  12  11:56:04  -4.31  -2.25   -70.108853    2             
iter:  13  11:56:18  -5.22  -1.77   -70.063894    2             
iter:  14  11:56:33  -5.40  -1.97   -70.058147    3             
iter:  15  11:56:48  -4.66  -2.03   -70.038560    2             
iter:  16  11:57:03  -5.38  -2.50   -70.037775    2             
iter:  17  11:57:18  -5.70  -2.60   -70.037578    2             
iter:  18  11:57:33  -5.28  -2.68   -70.040965    2             
iter:  19  11:57:47  -6.29  -2.40   -70.042239    2             
iter:  20  11:58:02  -6.12  -2.33   -70.045799    2             
iter:  21  11:58:17  -5.80  -2.21   -70.037875    2             
iter:  22  11:58:32  -6.27  -2.73   -70.037528    2             
iter:  23  11:58:47  -6.55  -2.87   -70.037486    2             
iter:  24  11:59:02  -6.70  -2.91   -70.037921    2             
iter:  25  11:59:17  -6.88  -2.72   -70.039057    2             
iter:  26  11:59:31  -6.26  -2.55   -70.039202    2             
iter:  27  11:59:46  -6.51  -2.56   -70.037575    2             
iter:  28  12:00:01  -7.05  -2.84   -70.037292    2             
iter:  29  12:00:16  -7.14  -3.01   -70.037262    2             
iter:  30  12:00:31  -7.42  -3.12   -70.037555    2             
iter:  31  12:00:45  -7.56  -2.89   -70.037492    2             
iter:  32  12:01:00  -7.51  -2.90   -70.037269    2             
iter:  33  12:01:15  -7.30  -3.03   -70.037404    2             
iter:  34  12:01:30  -7.67  -3.02   -70.037306    2             
iter:  35  12:01:45  -7.12  -3.13   -70.037229    2             
iter:  36  12:02:00  -7.53  -3.24   -70.037425    2             
iter:  37  12:02:14  -7.36  -2.95   -70.037767    2             
iter:  38  12:02:29  -7.55  -2.80   -70.037413    2             
iter:  39  12:02:44  -7.95  -3.04   -70.037195    2             
iter:  40  12:02:59  -8.16  -3.30   -70.037197    2             
iter:  41  12:03:14  -8.39  -3.35   -70.037202    2             
iter:  42  12:03:29  -7.90  -3.39   -70.037277    2             
iter:  43  12:03:44  -7.91  -3.21   -70.037435    2             
iter:  44  12:03:59  -7.81  -2.95   -70.037223    2             
iter:  45  12:04:14  -7.69  -3.17   -70.037231    2             
iter:  46  12:04:29  -8.07  -3.34   -70.037205    2             
iter:  47  12:04:44  -8.31  -3.41   -70.037179    2             
iter:  48  12:04:58  -8.44  -3.48   -70.037187    2             
iter:  49  12:05:13  -8.13  -3.37   -70.037323    2             
iter:  50  12:05:28  -8.21  -3.10   -70.037261    2             
iter:  51  12:05:43  -8.66  -3.28   -70.037182    2             
iter:  52  12:05:58  -8.28  -3.54   -70.037195    2             
iter:  53  12:06:12  -8.45  -3.52   -70.037205    2             
iter:  54  12:06:27  -7.91  -3.52   -70.037247    2             
iter:  55  12:06:42  -8.03  -3.34   -70.037370    2             
iter:  56  12:06:57  -7.57  -3.02   -70.037344    2             
iter:  57  12:07:12  -7.81  -3.01   -70.037198    2             
iter:  58  12:07:27  -8.60  -3.59   -70.037184    2             
iter:  59  12:07:42  -8.95  -3.72   -70.037180    2             
iter:  60  12:07:57  -8.98  -3.72   -70.037177    2             
iter:  61  12:08:12  -8.59  -3.73   -70.037243    2             
iter:  62  12:08:27  -8.27  -3.31   -70.037322    2             
iter:  63  12:08:42  -8.33  -3.20   -70.037174    2             
iter:  64  12:08:57  -8.69  -3.70   -70.037181    2             
iter:  65  12:09:12  -8.96  -3.80   -70.037184    2             
iter:  66  12:09:27  -9.06  -3.82   -70.037190    2             
iter:  67  12:09:42  -9.18  -3.75   -70.037187    2             
iter:  68  12:09:56  -8.87  -3.61   -70.037179    2             
iter:  69  12:10:11  -8.90  -3.51   -70.037188    2             
iter:  70  12:10:26  -9.56  -3.84   -70.037183    2             
iter:  71  12:10:41  -9.16  -3.92   -70.037182    2             
iter:  72  12:10:56  -9.23  -3.92   -70.037179    2             
iter:  73  12:11:11  -9.00  -3.84   -70.037201    2             
iter:  74  12:11:26  -8.73  -3.59   -70.037227    2             
iter:  75  12:11:41  -8.74  -3.50   -70.037174    2             
iter:  76  12:11:56  -9.40  -3.87   -70.037178    2             
iter:  77  12:12:10  -9.77  -4.02   -70.037179    2             

Converged after 77 iterations.

Dipole moment: (-0.000000, -0.000000, -0.000001) |e|*Ang

Energy contributions relative to reference atoms: (reference = -125465.042033)

Kinetic:        +64.866002
Potential:      -30.859964
External:        +0.000000
XC:            -103.804510
Entropy (-ST):   -0.255486
Local:           -0.110963
--------------------------
Free energy:    -70.164922
Extrapolated:   -70.037179

Fermi level: 4.28437

Warning: Showing only first 2 kpts
 Kpt  Band  Eigenvalues  Occupancy
  0    26      8.07846    0.00000
  0    27      8.69791    0.00000
  0    28      8.71802    0.00000
  0    29      8.76861    0.00000

  1    26      7.29550    0.00000
  1    27      7.41113    0.00000
  1    28      7.55413    0.00000
  1    29      7.63724    0.00000


Timing:                              incl.     excl.
-----------------------------------------------------------
Hamiltonian:                         0.954     0.003   0.0% |
 Atomic:                             0.105     0.058   0.0% |
  XC Correction:                     0.047     0.047   0.0% |
 Calculate atomic Hamiltonians:      0.380     0.380   0.0% |
 Communicate:                        0.000     0.000   0.0% |
 Initialize Hamiltonian:             0.000     0.000   0.0% |
 Poisson:                            0.005     0.005   0.0% |
 XC 3D grid:                         0.461     0.461   0.0% |
LCAO initialization:                30.107     0.074   0.0% |
 LCAO eigensolver:                  20.123     0.001   0.0% |
  Calculate projections:             0.005     0.005   0.0% |
  DenseAtomicCorrection:             0.014     0.014   0.0% |
  Distribute overlap matrix:         0.001     0.001   0.0% |
  Orbital Layouts:                   0.078     0.078   0.0% |
  Potential matrix:                 19.984    19.984   1.7% ||
  Sum over cells:                    0.041     0.041   0.0% |
 LCAO to grid:                       4.982     4.982   0.4% |
 Set positions (LCAO WFS):           4.929     0.001   0.0% |
  Basic WFS set positions:           0.003     0.003   0.0% |
  Basis functions set positions:     0.000     0.000   0.0% |
  TCI: Calculate S, T, P:            4.924     4.924   0.4% |
PWDescriptor:                        0.016     0.016   0.0% |
SCF-cycle:                        1138.969    86.010   7.3% |--|
 Density:                          133.991     0.002   0.0% |
  Atomic density matrices:           0.419     0.419   0.0% |
  Mix:                              67.168    67.168   5.7% |-|
  Multipole moments:                 0.036     0.036   0.0% |
  Pseudo density:                   66.367    62.950   5.4% |-|
   Symmetrize density:               3.417     3.417   0.3% |
 Hamiltonian:                       66.099     0.203   0.0% |
  Atomic:                            7.726     4.198   0.4% |
   XC Correction:                    3.528     3.528   0.3% |
  Calculate atomic Hamiltonians:    23.637    23.637   2.0% ||
  Communicate:                       0.016     0.016   0.0% |
  Poisson:                           0.233     0.233   0.0% |
  XC 3D grid:                       34.284    34.284   2.9% ||
 Orthonormalize:                    37.506     0.012   0.0% |
  Band Layouts:                      0.043     0.002   0.0% |
   Inverse Cholesky:                 0.041     0.041   0.0% |
  calc_s_matrix:                     3.268     3.268   0.3% |
  projections:                      29.080    29.080   2.5% ||
  rotate_psi:                        5.102     5.102   0.4% |
 RMM-DIIS:                         729.385    71.743   6.1% |-|
  Calculate residuals:             152.125   152.125  13.0% |----|
  DIIS step:                       343.016     3.591   0.3% |
   Calculate residuals:            313.302   313.302  26.7% |----------|
   Construct matrix:                 3.163     3.163   0.3% |
   Linear solve:                     0.504     0.504   0.0% |
   Update trial vectors:             4.456     4.456   0.4% |
   precondition:                    17.999    17.999   1.5% ||
  Find lambda:                       2.304     2.304   0.2% |
  Update psi:                        1.805     1.805   0.2% |
  precondition:                     37.710    37.710   3.2% ||
  projections:                     120.682   120.682  10.3% |---|
 Subspace diag:                     85.978     0.022   0.0% |
  Band Layouts:                      0.273     0.004   0.0% |
   Diagonalize:                      0.265     0.265   0.0% |
   Distribute results:               0.003     0.003   0.0% |
  calc_h_matrix:                    74.681    74.681   6.4% |--|
  rotate_psi:                       11.003    11.003   0.9% |
Set symmetry:                        0.116     0.116   0.0% |
Other:                               2.401     2.401   0.2% |
-----------------------------------------------------------
Total:                                      1172.564 100.0%

Memory usage: 611.34 MiB
Date: Tue Feb  6 12:12:10 2018
