
  ___ ___ ___ _ _ _  
 |   |   |_  | | | | 
 | | | | | . | | | | 
 |__ |  _|___|_____|  1.3.0
 |___|_|             

User:   edenborg@hebbe14-7
Date:   Tue Feb  6 11:27:23 2018
Arch:   x86_64
Pid:    4521
Python: 2.7.14
gpaw:   /apps/Hebbe/software/MPI/intel/2017.4.196-GCC-6.4.0-2.28/impi/2017.3.196/GPAW/1.3.0-Python-2.7.14/lib/python2.7/site-packages/gpaw
_gpaw:  /apps/Hebbe/software/MPI/intel/2017.4.196-GCC-6.4.0-2.28/impi/2017.3.196/GPAW/1.3.0-Python-2.7.14/bin/
       gpaw-python
ase:    /c3se/users/edenborg/Hebbe/ase/ase (version 3.15.1b1)
numpy:  /apps/Hebbe/software/MPI/intel/2017.4.196-GCC-6.4.0-2.28/impi/2017.3.196/Python/2.7.14/lib/python2.7/site-packages/numpy-1.13.1-py2.7-linux-x86_64.egg/numpy (version 1.13.1)
scipy:  /apps/Hebbe/software/MPI/intel/2017.4.196-GCC-6.4.0-2.28/impi/2017.3.196/Python/2.7.14/lib/python2.7/site-packages/scipy-0.19.1-py2.7-linux-x86_64.egg/scipy (version 0.19.1)
units:  Angstrom and eV
cores:  12

Input parameters:
  basis: dzp
  eigensolver: rmm-diis
  kpts: [16 16  1]
  mode: {ecut: 650.0,
         name: pw}
  xc: PBE

System changes: positions, numbers, cell, pbc, initial_charges, initial_magmoms 

Initialize ...

Al-setup:
  name: Aluminium
  id: 0292cae29f5d6237e50f6abdd43a7bdd
  Z: 13
  valence: 3
  core: 10
  charge: 0.0
  file: /c3se/apps/Glenn/gpaw/gpaw-setups-0.9.11271/Al.PBE.gz
  cutoffs: 1.08(comp), 1.91(filt), 2.36(core), lmax=2
  valence states:
                energy  radius
    3s(2.00)    -7.753   1.085
    3p(1.00)    -2.712   1.085
    *s          19.459   1.085
    *p          24.499   1.085
    *d           0.000   1.085

  LCAO basis set for Al:
    Name: dzp
    File: /c3se/apps/Glenn/gpaw/gpaw-setups-0.9.11271/Al.dzp.basis.gz
    Number of radial functions: 5
    Number of spherical harmonics: 13
      l=0, rc=7.8750 Bohr: 3s-sz confined orbital
      l=1, rc=10.4219 Bohr: 3p-sz confined orbital
      l=0, rc=4.6094 Bohr: 3s-dz split-valence wave
      l=1, rc=6.2812 Bohr: 3p-dz split-valence wave
      l=2, rc=10.4219 Bohr: d-type Gaussian polarization

Reference energy: -59430.809384

Spin-paired calculation

Occupation numbers:
  Fermi-Dirac: width=0.1000 eV

Convergence criteria:
  Maximum total energy change: 0.0005 eV / electron
  Maximum integral of absolute density change: 0.0001 electrons
  Maximum integral of absolute eigenstate change: 4e-08 eV^2
  Maximum number of iterations: 333

Symmetries present (total): 6

  ( 1  0  0)  ( 1 -1  0)  ( 0  1  0)  ( 0 -1  0)  (-1  1  0)  (-1  0  0)
  ( 0  1  0)  ( 0 -1  0)  ( 1  0  0)  ( 1 -1  0)  (-1  0  0)  (-1  1  0)
  ( 0  0  1)  ( 0  0  1)  ( 0  0  1)  ( 0  0  1)  ( 0  0  1)  ( 0  0  1)
Note: your k-points are not as symmetric as your crystal!

256 k-points: 16 x 16 x 1 Monkhorst-Pack grid
72 k-points in the irreducible part of the Brillouin zone
       k-points in crystal coordinates                weights
   0:     0.03125000   -0.03125000    0.00000000          2/256
   1:     0.03125000    0.03125000    0.00000000          2/256
   2:     0.09375000   -0.09375000    0.00000000          2/256
   3:     0.09375000   -0.03125000    0.00000000          4/256
   4:     0.09375000    0.03125000    0.00000000          4/256
   5:     0.09375000    0.09375000    0.00000000          2/256
   6:     0.15625000   -0.15625000    0.00000000          2/256
   7:     0.15625000   -0.09375000    0.00000000          4/256
   8:     0.15625000   -0.03125000    0.00000000          4/256
   9:     0.15625000    0.03125000    0.00000000          4/256
          ...
  71:     0.46875000    0.46875000    0.00000000          2/256

Wave functions: Plane wave expansion
  Cutoff energy: 650.000 eV
  Number of coefficients (min, max): 8863, 9048
  Using FFTW library
  Eigensolver: None  MatrixOperator buffer_size: default value or 
                              see value of nblock in input file
Diagonalizer layout: Serial LAPACKOrthonormalizer layout: Serial LAPACK 

RMM-DIIS eigensolver
       keep_htpsit: True
       Block size: 10
       DIIS iterations: 3
       Threshold for DIIS: 1.0e-16
       Limit lambda: False
       use_rayleigh: False
       trial_step: 0.1 

Densities:
  Coarse grid: 15*15*200 grid
  Fine grid: 30*30*400 grid
  Total Charge: 0.000000 

Density mixing:
  Method: separate
  Backend: pulay
  Linear mixing parameter: 0.05
  Mixing with 5 old densities
  Damping of long wave oscillations: 50 

Hamiltonian:
  XC and Coulomb potentials evaluated on a 30*30*400 grid
  Using the PBE Exchange-Correlation functional
 

Memory estimate:
  Process memory now: 221.64 MiB
  Calculator: 73.91 MiB
    Density: 19.07 MiB
      Arrays: 8.93 MiB
      Localized functions: 6.71 MiB
      Mixer: 3.43 MiB
    Hamiltonian: 5.97 MiB
      Arrays: 5.84 MiB
      XC: 0.00 MiB
      Poisson: 0.00 MiB
      vbar: 0.14 MiB
    Wavefunctions: 48.87 MiB
      Arrays psit_nG: 29.82 MiB
      Eigensolver: 5.66 MiB
      Projections: 0.39 MiB
      Projectors: 5.69 MiB
      Overlap op: 4.99 MiB
      PW-descriptor: 2.33 MiB

Total number of cores used: 12
Parallelization over k-points: 12

Number of atoms: 9
Number of atomic orbitals: 117
Number of bands in calculation: 36
Bands to converge: occupied states only
Number of valence electrons: 27

... initialized

Initializing position-dependent things.

Density initialized from atomic densities
Creating initial wave functions:
  36 bands from LCAO basis set

                    
                    
                    
                    
       Al           
                    
        Al          
                    
                    
                    
           Al       
                    
                    
       Al           
                    
        Al          
                    
                    
           Al       
                    
                    
                    
       Al           
                    
        Al          
                    
                    
           Al       
                    
                    
                    
                    

Positions:
   0 Al     1.429770    0.825478    7.500000
   1 Al     0.000000    1.650956    9.834804
   2 Al     0.000000    0.000000   12.169609
   3 Al     1.429770    0.825478   14.504413
   4 Al     0.000000    1.650956   16.839218
   5 Al     0.000000    0.000000   19.174022
   6 Al     1.429770    0.825478   21.508827
   7 Al     0.000000    1.650956   23.843631
   8 Al     0.000000    0.000000   26.178436

Unit cell:
           periodic     x           y           z      points  spacing
  1. axis:    yes    2.859540    0.000000    0.000000    15     0.1651
  2. axis:    yes    1.429770    2.476434    0.000000    15     0.1651
  3. axis:    no     0.000000    0.000000   33.678436   200     0.1684

  Lengths:   2.859540   2.859540  33.678436
  Angles:   90.000000  90.000000  60.000000

Effective grid spacing dv^(1/3) = 0.1743

                     log10-error:    total        iterations:
           time      wfs    density  energy       fermi  poisson
iter:   1  11:27:41  +1.28   +inf   -32.370683    3             
iter:   2  11:27:45  -2.19   +inf   -33.103421    3             
iter:   3  11:27:49  -3.34   +inf   -33.107543    2             
iter:   4  11:27:54  -3.30  -0.89   -33.122731    32            
iter:   5  11:27:58  -3.53  -0.92   -33.076387    3             
iter:   6  11:28:03  -2.37  -0.93   -32.959417    33            
iter:   7  11:28:08  -2.19  -1.13   -33.001131    3             
iter:   8  11:28:13  -2.66  -1.42   -32.939185    3             
iter:   9  11:28:17  -3.63  -1.83   -32.925490    3             
iter:  10  11:28:22  -3.35  -1.96   -32.917113    3             
iter:  11  11:28:27  -4.29  -2.32   -32.917275    3             
iter:  12  11:28:32  -5.54  -2.36   -32.916304    3             
iter:  13  11:28:37  -4.44  -2.51   -32.915828    2             
iter:  14  11:28:42  -5.67  -2.80   -32.915907    2             
iter:  15  11:28:46  -6.49  -2.83   -32.916295    2             
iter:  16  11:28:51  -5.93  -2.64   -32.915932    2             
iter:  17  11:28:56  -5.41  -2.90   -32.915918    2             
iter:  18  11:29:01  -6.36  -3.21   -32.915925    2             
iter:  19  11:29:06  -6.47  -3.30   -32.915923    2             
iter:  20  11:29:10  -7.15  -3.32   -32.915930    2             
iter:  21  11:29:15  -6.85  -3.46   -32.915964    2             
iter:  22  11:29:20  -7.61  -3.18   -32.915919    2             
iter:  23  11:29:25  -8.15  -3.76   -32.915919    2             
iter:  24  11:29:30  -7.18  -3.82   -32.915918    2             
iter:  25  11:29:35  -8.06  -4.09   -32.915919    2             

Converged after 25 iterations.

Dipole moment: (-0.044239, -0.025542, 0.000006) |e|*Ang

Energy contributions relative to reference atoms: (reference = -59430.809384)

Kinetic:        +29.473962
Potential:      -13.955411
External:        +0.000000
XC:             -48.326361
Entropy (-ST):   -0.120711
Local:           -0.047754
--------------------------
Free energy:    -32.976274
Extrapolated:   -32.915919

Fermi level: 2.95721

Warning: Showing only first 2 kpts
 Kpt  Band  Eigenvalues  Occupancy
  0    11      1.98228    0.01562
  0    12      3.49291    0.00007
  0    13      4.95165    0.00000
  0    14      6.12828    0.00000

  1    11      1.93861    0.01562
  1    12      3.44993    0.00011
  1    13      4.90917    0.00000
  1    14      6.08453    0.00000


Timing:                              incl.     excl.
-----------------------------------------------------------
Hamiltonian:                         0.381     0.001   0.0% |
 Atomic:                             0.052     0.052   0.0% |
  XC Correction:                     0.000     0.000   0.0% |
 Calculate atomic Hamiltonians:      0.125     0.125   0.1% |
 Communicate:                        0.000     0.000   0.0% |
 Initialize Hamiltonian:             0.000     0.000   0.0% |
 Poisson:                            0.001     0.001   0.0% |
 XC 3D grid:                         0.201     0.201   0.2% |
LCAO initialization:                11.193     0.074   0.1% |
 LCAO eigensolver:                   6.979     0.001   0.0% |
  Calculate projections:             0.001     0.001   0.0% |
  DenseAtomicCorrection:             0.005     0.005   0.0% |
  Distribute overlap matrix:         0.001     0.001   0.0% |
  Orbital Layouts:                   0.024     0.024   0.0% |
  Potential matrix:                  6.918     6.918   5.3% |-|
  Sum over cells:                    0.030     0.030   0.0% |
 LCAO to grid:                       1.780     1.780   1.4% ||
 Set positions (LCAO WFS):           2.360     0.001   0.0% |
  Basic WFS set positions:           0.001     0.001   0.0% |
  Basis functions set positions:     0.000     0.000   0.0% |
  TCI: Calculate S, T, P:            2.358     2.358   1.8% ||
PWDescriptor:                        0.012     0.012   0.0% |
SCF-cycle:                         118.931    10.583   8.0% |--|
 Density:                           11.265     0.000   0.0% |
  Atomic density matrices:           0.069     0.069   0.1% |
  Mix:                               3.557     3.557   2.7% ||
  Multipole moments:                 0.006     0.006   0.0% |
  Pseudo density:                    7.633     7.292   5.5% |-|
   Symmetrize density:               0.341     0.341   0.3% |
 Hamiltonian:                        6.689     0.023   0.0% |
  Atomic:                            1.155     1.155   0.9% |
   XC Correction:                    0.000     0.000   0.0% |
  Calculate atomic Hamiltonians:     1.164     1.164   0.9% |
  Communicate:                       0.004     0.004   0.0% |
  Poisson:                           0.027     0.027   0.0% |
  XC 3D grid:                        4.316     4.316   3.3% ||
 Orthonormalize:                     4.432     0.007   0.0% |
  Band Layouts:                      0.010     0.001   0.0% |
   Inverse Cholesky:                 0.009     0.009   0.0% |
  calc_s_matrix:                     0.353     0.353   0.3% |
  projections:                       3.569     3.569   2.7% ||
  rotate_psi:                        0.493     0.493   0.4% |
 RMM-DIIS:                          75.630     9.350   7.1% |--|
  Calculate residuals:              13.678    13.678  10.4% |---|
  DIIS step:                        34.690     0.625   0.5% |
   Calculate residuals:             29.198    29.198  22.2% |--------|
   Construct matrix:                 0.671     0.671   0.5% |
   Linear solve:                     0.159     0.159   0.1% |
   Update trial vectors:             0.805     0.805   0.6% |
   precondition:                     3.232     3.232   2.5% ||
  Find lambda:                       0.468     0.468   0.4% |
  Update psi:                        0.308     0.308   0.2% |
  precondition:                      6.810     6.810   5.2% |-|
  projections:                      10.325    10.325   7.8% |--|
 Subspace diag:                     10.332     0.010   0.0% |
  Band Layouts:                      0.051     0.002   0.0% |
   Diagonalize:                      0.047     0.047   0.0% |
   Distribute results:               0.002     0.002   0.0% |
  calc_h_matrix:                     9.316     9.316   7.1% |--|
  rotate_psi:                        0.956     0.956   0.7% |
Set symmetry:                        0.105     0.105   0.1% |
Other:                               1.016     1.016   0.8% |
-----------------------------------------------------------
Total:                                       131.637 100.0%

Memory usage: 269.18 MiB
Date: Tue Feb  6 11:29:35 2018
