
  ___ ___ ___ _ _ _  
 |   |   |_  | | | | 
 | | | | | . | | | | 
 |__ |  _|___|_____|  1.3.0
 |___|_|             

User:   fantm@hebbe03-8
Date:   Tue Feb  6 11:43:32 2018
Arch:   x86_64
Pid:    12649
Python: 2.7.14
gpaw:   /apps/Hebbe/software/MPI/intel/2017.4.196-GCC-6.4.0-2.28/impi/2017.3.196/GPAW/1.3.0-Python-2.7.14/lib/python2.7/site-packages/gpaw
_gpaw:  /apps/Hebbe/software/MPI/intel/2017.4.196-GCC-6.4.0-2.28/impi/2017.3.196/GPAW/1.3.0-Python-2.7.14/bin/
       gpaw-python
ase:    /apps/Hebbe/software/MPI/intel/2017.4.196-GCC-6.4.0-2.28/impi/2017.3.196/ASE/3.15.0-Python-2.7.14/lib/python2.7/site-packages/ase-3.15.0-py2.7.egg/ase (version 3.15.0)
numpy:  /apps/Hebbe/software/MPI/intel/2017.4.196-GCC-6.4.0-2.28/impi/2017.3.196/Python/2.7.14/lib/python2.7/site-packages/numpy-1.13.1-py2.7-linux-x86_64.egg/numpy (version 1.13.1)
scipy:  /apps/Hebbe/software/MPI/intel/2017.4.196-GCC-6.4.0-2.28/impi/2017.3.196/Python/2.7.14/lib/python2.7/site-packages/scipy-0.19.1-py2.7-linux-x86_64.egg/scipy (version 0.19.1)
units:  Angstrom and eV
cores:  12

Input parameters:
  basis: dzp
  eigensolver: rmm-diis
  kpts: [16 16  1]
  mode: {ecut: 650.0,
         name: pw}
  xc: PBE

System changes: positions, numbers, cell, pbc, initial_charges, initial_magmoms 

Initialize ...

Al-setup:
  name: Aluminium
  id: 0292cae29f5d6237e50f6abdd43a7bdd
  Z: 13
  valence: 3
  core: 10
  charge: 0.0
  file: /c3se/apps/Glenn/gpaw/gpaw-setups-0.9.11271/Al.PBE.gz
  cutoffs: 1.08(comp), 1.91(filt), 2.36(core), lmax=2
  valence states:
                energy  radius
    3s(2.00)    -7.753   1.085
    3p(1.00)    -2.712   1.085
    *s          19.459   1.085
    *p          24.499   1.085
    *d           0.000   1.085

  LCAO basis set for Al:
    Name: dzp
    File: /c3se/apps/Glenn/gpaw/gpaw-setups-0.9.11271/Al.dzp.basis.gz
    Number of radial functions: 5
    Number of spherical harmonics: 13
      l=0, rc=7.8750 Bohr: 3s-sz confined orbital
      l=1, rc=10.4219 Bohr: 3p-sz confined orbital
      l=0, rc=4.6094 Bohr: 3s-dz split-valence wave
      l=1, rc=6.2812 Bohr: 3p-dz split-valence wave
      l=2, rc=10.4219 Bohr: d-type Gaussian polarization

Reference energy: -112258.195503

Spin-paired calculation

Occupation numbers:
  Fermi-Dirac: width=0.1000 eV

Convergence criteria:
  Maximum total energy change: 0.0005 eV / electron
  Maximum integral of absolute density change: 0.0001 electrons
  Maximum integral of absolute eigenstate change: 4e-08 eV^2
  Maximum number of iterations: 333

Symmetries present (total): 8

  ( 1  0  0)  ( 1  0  0)  ( 0  1  0)  ( 0  1  0)  ( 0 -1  0)  ( 0 -1  0)
  ( 0  1  0)  ( 0 -1  0)  ( 1  0  0)  (-1  0  0)  ( 1  0  0)  (-1  0  0)
  ( 0  0  1)  ( 0  0  1)  ( 0  0  1)  ( 0  0  1)  ( 0  0  1)  ( 0  0  1)

  (-1  0  0)  (-1  0  0)
  ( 0  1  0)  ( 0 -1  0)
  ( 0  0  1)  ( 0  0  1)

256 k-points: 16 x 16 x 1 Monkhorst-Pack grid
36 k-points in the irreducible part of the Brillouin zone
       k-points in crystal coordinates                weights
   0:     0.03125000    0.03125000    0.00000000          4/256
   1:     0.09375000    0.03125000    0.00000000          8/256
   2:     0.09375000    0.09375000    0.00000000          4/256
   3:     0.15625000    0.03125000    0.00000000          8/256
   4:     0.15625000    0.09375000    0.00000000          8/256
   5:     0.15625000    0.15625000    0.00000000          4/256
   6:     0.21875000    0.03125000    0.00000000          8/256
   7:     0.21875000    0.09375000    0.00000000          8/256
   8:     0.21875000    0.15625000    0.00000000          8/256
   9:     0.21875000    0.21875000    0.00000000          4/256
          ...
  35:     0.46875000    0.46875000    0.00000000          4/256

Wave functions: Plane wave expansion
  Cutoff energy: 650.000 eV
  Number of coefficients (min, max): 14488, 14702
  Using FFTW library
  Eigensolver: None  MatrixOperator buffer_size: default value or 
                              see value of nblock in input file
Diagonalizer layout: Serial LAPACKOrthonormalizer layout: Serial LAPACK 

RMM-DIIS eigensolver
       keep_htpsit: True
       Block size: 10
       DIIS iterations: 3
       Threshold for DIIS: 1.0e-16
       Limit lambda: False
       use_rayleigh: False
       trial_step: 0.1 

Densities:
  Coarse grid: 18*18*280 grid
  Fine grid: 36*36*560 grid
  Total Charge: 0.000000 

Density mixing:
  Method: separate
  Backend: pulay
  Linear mixing parameter: 0.05
  Mixing with 5 old densities
  Damping of long wave oscillations: 50 

Hamiltonian:
  XC and Coulomb potentials evaluated on a 36*36*560 grid
  Using the PBE Exchange-Correlation functional
 

Memory estimate:
  Process memory now: 468.16 MiB
  Calculator: 139.41 MiB
    Density: 40.57 MiB
      Arrays: 18.00 MiB
      Localized functions: 15.65 MiB
      Mixer: 6.92 MiB
    Hamiltonian: 12.09 MiB
      Arrays: 11.77 MiB
      XC: 0.00 MiB
      Poisson: 0.00 MiB
      vbar: 0.32 MiB
    Wavefunctions: 86.76 MiB
      Arrays psit_nG: 45.76 MiB
      Eigensolver: 16.38 MiB
      Projections: 0.69 MiB
      Projectors: 4.65 MiB
      Overlap op: 15.33 MiB
      PW-descriptor: 3.96 MiB

Total number of cores used: 12
Parallelization over k-points: 12

Number of atoms: 17
Number of atomic orbitals: 221
Number of bands in calculation: 68
Bands to converge: occupied states only
Number of valence electrons: 51

... initialized

Initializing position-dependent things.

Density initialized from atomic densities
Creating initial wave functions:
  68 bands from LCAO basis set

   .------.  
  /|      |  
 * |      |  
 | |      |  
 | |      |  
 | |      |  
 | |      |  
 | |      |  
 | |      |  
 | |      |  
 | |      |  
 Al|      |  
 | |      |  
 | | Al   |  
 | |      |  
 | |      |  
 Al|      |  
 | |      |  
 | | Al   |  
 | |      |  
 | |      |  
 Al|      |  
 | |      |  
 | | Al   |  
 | |      |  
 | |      |  
 Al|      |  
 | |      |  
 | | Al   |  
 | |      |  
 | |      |  
 Al|      |  
 | | Al   |  
 | |      |  
 | |      |  
 | |      |  
 Al|      |  
 | | Al   |  
 | |      |  
 | |      |  
 | |      |  
 Al|      |  
 | | Al   |  
 | |      |  
 | |      |  
 | |      |  
 Al|      |  
 | | Al   |  
 | |      |  
 | |      |  
 | |      |  
 Al|      |  
 | |      |  
 | |      |  
 | |      |  
 | |      |  
 | |      |  
 | |      |  
 | .------.  
 |/      /   
 *------*    

Positions:
   0 Al     0.000000    0.000000    7.500000
   1 Al     1.429770    1.429770    9.522000
   2 Al     0.000000    0.000000   11.544000
   3 Al     1.429770    1.429770   13.566000
   4 Al     0.000000    0.000000   15.588000
   5 Al     1.429770    1.429770   17.610000
   6 Al     0.000000    0.000000   19.632000
   7 Al     1.429770    1.429770   21.654000
   8 Al     0.000000    0.000000   23.676000
   9 Al     1.429770    1.429770   25.698000
  10 Al     0.000000    0.000000   27.720000
  11 Al     1.429770    1.429770   29.742000
  12 Al     0.000000    0.000000   31.764000
  13 Al     1.429770    1.429770   33.786000
  14 Al     0.000000    0.000000   35.808000
  15 Al     1.429770    1.429770   37.830000
  16 Al     0.000000    0.000000   39.852000

Unit cell:
           periodic     x           y           z      points  spacing
  1. axis:    yes    2.859540    0.000000    0.000000    18     0.1589
  2. axis:    yes    0.000000    2.859540    0.000000    18     0.1589
  3. axis:    no     0.000000    0.000000   47.352000   280     0.1691

  Lengths:   2.859540   2.859540  47.352000
  Angles:   90.000000  90.000000  90.000000

Effective grid spacing dv^(1/3) = 0.1622

                     log10-error:    total        iterations:
           time      wfs    density  energy       fermi  poisson
iter:   1  11:44:12  +1.28   +inf   -61.391413    2             
iter:   2  11:44:21  -2.30   +inf   -62.763907    3             
iter:   3  11:44:30  -3.47   +inf   -62.770032    2             
iter:   4  11:44:41  -3.36  -0.91   -63.820470    32            
iter:   5  11:44:52  -3.42  -0.89   -64.220425    33            
iter:   6  11:45:03  -3.09  -0.87   -62.893522    32            
iter:   7  11:45:14  -2.38  -0.99   -62.711187    4             
iter:   8  11:45:25  -2.62  -1.24   -62.701321    3             
iter:   9  11:45:36  -3.16  -1.52   -62.595276    3             
iter:  10  11:45:48  -3.73  -1.85   -62.588429    3             
iter:  11  11:45:59  -4.14  -1.93   -62.742416    3             
iter:  12  11:46:10  -4.06  -1.54   -62.559497    3             
iter:  13  11:46:21  -4.81  -2.27   -62.558614    3             
iter:  14  11:46:32  -5.05  -2.38   -62.557505    2             
iter:  15  11:46:43  -4.67  -2.47   -62.600934    2             
iter:  16  11:46:54  -5.23  -1.83   -62.558904    2             
iter:  17  11:47:05  -5.33  -2.42   -62.562432    3             
iter:  18  11:47:16  -5.97  -2.28   -62.556964    3             
iter:  19  11:47:27  -5.84  -2.69   -62.556979    2             
iter:  20  11:47:38  -6.09  -2.75   -62.556869    2             
iter:  21  11:47:49  -5.46  -2.81   -62.558379    2             
iter:  22  11:48:01  -6.05  -2.53   -62.557670    2             
iter:  23  11:48:12  -5.94  -2.63   -62.557190    2             
iter:  24  11:48:23  -6.74  -2.79   -62.556738    2             
iter:  25  11:48:34  -6.41  -2.96   -62.556692    2             
iter:  26  11:48:45  -6.90  -3.11   -62.556656    2             
iter:  27  11:48:56  -6.63  -3.17   -62.556694    2             
iter:  28  11:49:07  -6.87  -3.15   -62.557837    2             
iter:  29  11:49:18  -6.46  -2.60   -62.556635    2             
iter:  30  11:49:29  -7.06  -3.34   -62.556619    2             
iter:  31  11:49:41  -7.80  -3.21   -62.556626    2             
iter:  32  11:49:52  -7.22  -3.39   -62.556593    2             
iter:  33  11:50:03  -7.65  -3.48   -62.556589    2             
iter:  34  11:50:14  -7.52  -3.49   -62.556860    2             
iter:  35  11:50:25  -7.92  -2.92   -62.556585    2             
iter:  36  11:50:36  -7.70  -3.53   -62.556597    2             
iter:  37  11:50:47  -7.50  -3.63   -62.556576    2             
iter:  38  11:50:58  -8.23  -3.62   -62.556598    2             
iter:  39  11:51:09  -8.11  -3.62   -62.556577    2             
iter:  40  11:51:20  -7.71  -3.68   -62.556581    2             
iter:  41  11:51:31  -8.53  -3.65   -62.556598    2             
iter:  42  11:51:42  -8.54  -3.45   -62.556579    2             
iter:  43  11:51:53  -8.31  -3.85   -62.556579    2             
iter:  44  11:52:05  -8.12  -3.96   -62.556599    2             
iter:  45  11:52:16  -8.62  -3.71   -62.556576    2             
iter:  46  11:52:27  -8.53  -3.91   -62.556582    2             
iter:  47  11:52:38  -8.48  -4.17   -62.556580    1             

Converged after 47 iterations.

Dipole moment: (-0.000000, -0.000000, -0.000046) |e|*Ang

Energy contributions relative to reference atoms: (reference = -112258.195503)

Kinetic:        +57.616889
Potential:      -27.397379
External:        +0.000000
XC:             -92.561458
Entropy (-ST):   -0.236309
Local:           -0.096477
--------------------------
Free energy:    -62.674734
Extrapolated:   -62.556580

Fermi level: 4.04593

Warning: Showing only first 2 kpts
 Kpt  Band  Eigenvalues  Occupancy
  0    23      7.68712    0.00000
  0    24      8.08197    0.00000
  0    25      8.46185    0.00000
  0    26      8.54882    0.00000

  1    23      7.01435    0.00000
  1    24      7.07599    0.00000
  1    25      7.22116    0.00000
  1    26      7.40894    0.00000


Timing:                              incl.     excl.
-----------------------------------------------------------
Hamiltonian:                         0.864     0.002   0.0% |
 Atomic:                             0.103     0.056   0.0% |
  XC Correction:                     0.047     0.047   0.0% |
 Calculate atomic Hamiltonians:      0.343     0.343   0.1% |
 Communicate:                        0.000     0.000   0.0% |
 Initialize Hamiltonian:             0.000     0.000   0.0% |
 Poisson:                            0.004     0.004   0.0% |
 XC 3D grid:                         0.412     0.412   0.1% |
LCAO initialization:                25.514     0.073   0.0% |
 LCAO eigensolver:                  17.235     0.001   0.0% |
  Calculate projections:             0.003     0.003   0.0% |
  DenseAtomicCorrection:             0.010     0.010   0.0% |
  Distribute overlap matrix:         0.001     0.001   0.0% |
  Orbital Layouts:                   0.058     0.058   0.0% |
  Potential matrix:                 17.129    17.129   3.1% ||
  Sum over cells:                    0.033     0.033   0.0% |
 LCAO to grid:                       3.864     3.864   0.7% |
 Set positions (LCAO WFS):           4.343     0.001   0.0% |
  Basic WFS set positions:           0.003     0.003   0.0% |
  Basis functions set positions:     0.000     0.000   0.0% |
  TCI: Calculate S, T, P:            4.338     4.338   0.8% |
PWDescriptor:                        0.014     0.014   0.0% |
SCF-cycle:                         517.128    38.307   7.0% |--|
 Density:                           60.308     0.001   0.0% |
  Atomic density matrices:           0.223     0.223   0.0% |
  Mix:                              28.964    28.964   5.3% |-|
  Multipole moments:                 0.020     0.020   0.0% |
  Pseudo density:                   31.101    29.298   5.4% |-|
   Symmetrize density:               1.803     1.803   0.3% |
 Hamiltonian:                       33.348     0.089   0.0% |
  Atomic:                            4.566     2.481   0.5% |
   XC Correction:                    2.085     2.085   0.4% |
  Calculate atomic Hamiltonians:    10.431    10.431   1.9% ||
  Communicate:                       0.009     0.009   0.0% |
  Poisson:                           0.116     0.116   0.0% |
  XC 3D grid:                       18.138    18.138   3.3% ||
 Orthonormalize:                    16.989     0.007   0.0% |
  Band Layouts:                      0.023     0.001   0.0% |
   Inverse Cholesky:                 0.022     0.022   0.0% |
  calc_s_matrix:                     1.535     1.535   0.3% |
  projections:                      13.128    13.128   2.4% ||
  rotate_psi:                        2.296     2.296   0.4% |
 RMM-DIIS:                         327.767    33.848   6.2% |-|
  Calculate residuals:              66.772    66.772  12.2% |----|
  DIIS step:                       153.514     1.811   0.3% |
   Calculate residuals:            138.384   138.384  25.4% |---------|
   Construct matrix:                 1.669     1.669   0.3% |
   Linear solve:                     0.272     0.272   0.0% |
   Update trial vectors:             2.313     2.313   0.4% |
   precondition:                     9.066     9.066   1.7% ||
  Find lambda:                       1.211     1.211   0.2% |
  Update psi:                        0.913     0.913   0.2% |
  precondition:                     18.965    18.965   3.5% ||
  projections:                      52.546    52.546   9.6% |---|
 Subspace diag:                     40.408     0.012   0.0% |
  Band Layouts:                      0.138     0.002   0.0% |
   Diagonalize:                      0.133     0.133   0.0% |
   Distribute results:               0.002     0.002   0.0% |
  calc_h_matrix:                    35.086    35.086   6.4% |--|
  rotate_psi:                        5.172     5.172   0.9% |
Set symmetry:                        0.123     0.123   0.0% |
Other:                               1.980     1.980   0.4% |
-----------------------------------------------------------
Total:                                       545.623 100.0%

Memory usage: 530.55 MiB
Date: Tue Feb  6 11:52:38 2018
