
  ___ ___ ___ _ _ _  
 |   |   |_  | | | | 
 | | | | | . | | | | 
 |__ |  _|___|_____|  1.3.0
 |___|_|             

User:   fantm@hebbe03-8
Date:   Tue Feb  6 11:28:23 2018
Arch:   x86_64
Pid:    12649
Python: 2.7.14
gpaw:   /apps/Hebbe/software/MPI/intel/2017.4.196-GCC-6.4.0-2.28/impi/2017.3.196/GPAW/1.3.0-Python-2.7.14/lib/python2.7/site-packages/gpaw
_gpaw:  /apps/Hebbe/software/MPI/intel/2017.4.196-GCC-6.4.0-2.28/impi/2017.3.196/GPAW/1.3.0-Python-2.7.14/bin/
       gpaw-python
ase:    /apps/Hebbe/software/MPI/intel/2017.4.196-GCC-6.4.0-2.28/impi/2017.3.196/ASE/3.15.0-Python-2.7.14/lib/python2.7/site-packages/ase-3.15.0-py2.7.egg/ase (version 3.15.0)
numpy:  /apps/Hebbe/software/MPI/intel/2017.4.196-GCC-6.4.0-2.28/impi/2017.3.196/Python/2.7.14/lib/python2.7/site-packages/numpy-1.13.1-py2.7-linux-x86_64.egg/numpy (version 1.13.1)
scipy:  /apps/Hebbe/software/MPI/intel/2017.4.196-GCC-6.4.0-2.28/impi/2017.3.196/Python/2.7.14/lib/python2.7/site-packages/scipy-0.19.1-py2.7-linux-x86_64.egg/scipy (version 0.19.1)
units:  Angstrom and eV
cores:  12

Input parameters:
  basis: dzp
  eigensolver: rmm-diis
  kpts: [16 16  1]
  mode: {ecut: 650.0,
         name: pw}
  xc: PBE

System changes: positions, numbers, cell, pbc, initial_charges, initial_magmoms 

Initialize ...

Al-setup:
  name: Aluminium
  id: 0292cae29f5d6237e50f6abdd43a7bdd
  Z: 13
  valence: 3
  core: 10
  charge: 0.0
  file: /c3se/apps/Glenn/gpaw/gpaw-setups-0.9.11271/Al.PBE.gz
  cutoffs: 1.08(comp), 1.91(filt), 2.36(core), lmax=2
  valence states:
                energy  radius
    3s(2.00)    -7.753   1.085
    3p(1.00)    -2.712   1.085
    *s          19.459   1.085
    *p          24.499   1.085
    *d           0.000   1.085

  LCAO basis set for Al:
    Name: dzp
    File: /c3se/apps/Glenn/gpaw/gpaw-setups-0.9.11271/Al.dzp.basis.gz
    Number of radial functions: 5
    Number of spherical harmonics: 13
      l=0, rc=7.8750 Bohr: 3s-sz confined orbital
      l=1, rc=10.4219 Bohr: 3p-sz confined orbital
      l=0, rc=4.6094 Bohr: 3s-dz split-valence wave
      l=1, rc=6.2812 Bohr: 3p-dz split-valence wave
      l=2, rc=10.4219 Bohr: d-type Gaussian polarization

Reference energy: -72637.655914

Spin-paired calculation

Occupation numbers:
  Fermi-Dirac: width=0.1000 eV

Convergence criteria:
  Maximum total energy change: 0.0005 eV / electron
  Maximum integral of absolute density change: 0.0001 electrons
  Maximum integral of absolute eigenstate change: 4e-08 eV^2
  Maximum number of iterations: 333

Symmetries present (total): 8

  ( 1  0  0)  ( 1  0  0)  ( 0  1  0)  ( 0  1  0)  ( 0 -1  0)  ( 0 -1  0)
  ( 0  1  0)  ( 0 -1  0)  ( 1  0  0)  (-1  0  0)  ( 1  0  0)  (-1  0  0)
  ( 0  0  1)  ( 0  0  1)  ( 0  0  1)  ( 0  0  1)  ( 0  0  1)  ( 0  0  1)

  (-1  0  0)  (-1  0  0)
  ( 0  1  0)  ( 0 -1  0)
  ( 0  0  1)  ( 0  0  1)

256 k-points: 16 x 16 x 1 Monkhorst-Pack grid
36 k-points in the irreducible part of the Brillouin zone
       k-points in crystal coordinates                weights
   0:     0.03125000    0.03125000    0.00000000          4/256
   1:     0.09375000    0.03125000    0.00000000          8/256
   2:     0.09375000    0.09375000    0.00000000          4/256
   3:     0.15625000    0.03125000    0.00000000          8/256
   4:     0.15625000    0.09375000    0.00000000          8/256
   5:     0.15625000    0.15625000    0.00000000          4/256
   6:     0.21875000    0.03125000    0.00000000          8/256
   7:     0.21875000    0.09375000    0.00000000          8/256
   8:     0.21875000    0.15625000    0.00000000          8/256
   9:     0.21875000    0.21875000    0.00000000          4/256
          ...
  35:     0.46875000    0.46875000    0.00000000          4/256

Wave functions: Plane wave expansion
  Cutoff energy: 650.000 eV
  Number of coefficients (min, max): 10768, 10935
  Using FFTW library
  Eigensolver: None  MatrixOperator buffer_size: default value or 
                              see value of nblock in input file
Diagonalizer layout: Serial LAPACKOrthonormalizer layout: Serial LAPACK 

RMM-DIIS eigensolver
       keep_htpsit: True
       Block size: 10
       DIIS iterations: 3
       Threshold for DIIS: 1.0e-16
       Limit lambda: False
       use_rayleigh: False
       trial_step: 0.1 

Densities:
  Coarse grid: 18*18*210 grid
  Fine grid: 36*36*420 grid
  Total Charge: 0.000000 

Density mixing:
  Method: separate
  Backend: pulay
  Linear mixing parameter: 0.05
  Mixing with 5 old densities
  Damping of long wave oscillations: 50 

Hamiltonian:
  XC and Coulomb potentials evaluated on a 36*36*420 grid
  Using the PBE Exchange-Correlation functional
 

Memory estimate:
  Process memory now: 311.65 MiB
  Calculator: 83.97 MiB
    Density: 30.62 MiB
      Arrays: 13.50 MiB
      Localized functions: 11.93 MiB
      Mixer: 5.19 MiB
    Hamiltonian: 9.07 MiB
      Arrays: 8.82 MiB
      XC: 0.00 MiB
      Poisson: 0.00 MiB
      vbar: 0.24 MiB
    Wavefunctions: 44.28 MiB
      Arrays psit_nG: 22.02 MiB
      Eigensolver: 8.18 MiB
      Projections: 0.29 MiB
      Projectors: 3.46 MiB
      Overlap op: 7.37 MiB
      PW-descriptor: 2.97 MiB

Total number of cores used: 12
Parallelization over k-points: 12

Number of atoms: 11
Number of atomic orbitals: 143
Number of bands in calculation: 44
Bands to converge: occupied states only
Number of valence electrons: 33

... initialized

Initializing position-dependent things.

Density initialized from atomic densities
Creating initial wave functions:
  44 bands from LCAO basis set

   .------.  
  /|      |  
 * |      |  
 | |      |  
 | |      |  
 | |      |  
 | |      |  
 | |      |  
 | |      |  
 | |      |  
 | |      |  
 Al|      |  
 | |      |  
 | | Al   |  
 | |      |  
 | |      |  
 Al|      |  
 | |      |  
 | | Al   |  
 | |      |  
 | |      |  
 Al|      |  
 | |      |  
 | | Al   |  
 | |      |  
 | |      |  
 Al|      |  
 | | Al   |  
 | |      |  
 | |      |  
 | |      |  
 Al|      |  
 | | Al   |  
 | |      |  
 | |      |  
 | |      |  
 Al|      |  
 | |      |  
 | |      |  
 | |      |  
 | |      |  
 | |      |  
 | |      |  
 | .------.  
 |/      /   
 *------*    

Positions:
   0 Al     0.000000    0.000000    7.500000
   1 Al     1.429770    1.429770    9.522000
   2 Al     0.000000    0.000000   11.544000
   3 Al     1.429770    1.429770   13.566000
   4 Al     0.000000    0.000000   15.588000
   5 Al     1.429770    1.429770   17.610000
   6 Al     0.000000    0.000000   19.632000
   7 Al     1.429770    1.429770   21.654000
   8 Al     0.000000    0.000000   23.676000
   9 Al     1.429770    1.429770   25.698000
  10 Al     0.000000    0.000000   27.720000

Unit cell:
           periodic     x           y           z      points  spacing
  1. axis:    yes    2.859540    0.000000    0.000000    18     0.1589
  2. axis:    yes    0.000000    2.859540    0.000000    18     0.1589
  3. axis:    no     0.000000    0.000000   35.220000   210     0.1677

  Lengths:   2.859540   2.859540  35.220000
  Angles:   90.000000  90.000000  90.000000

Effective grid spacing dv^(1/3) = 0.1618

                     log10-error:    total        iterations:
           time      wfs    density  energy       fermi  poisson
iter:   1  11:28:45  +1.28   +inf   -39.448858    3             
iter:   2  11:28:48  -2.23   +inf   -40.337242    3             
iter:   3  11:28:52  -3.42   +inf   -40.341889    2             
iter:   4  11:28:56  -3.39  -0.90   -40.425647    32            
iter:   5  11:29:01  -3.54  -0.93   -40.384945    3             
iter:   6  11:29:06  -2.60  -0.93   -40.169446    33            
iter:   7  11:29:11  -2.20  -1.11   -40.249679    3             
iter:   8  11:29:16  -2.70  -1.40   -40.167962    3             
iter:   9  11:29:20  -3.63  -1.83   -40.157619    2             
iter:  10  11:29:25  -3.28  -1.95   -40.146117    3             
iter:  11  11:29:30  -4.61  -2.35   -40.149815    2             
iter:  12  11:29:35  -5.39  -2.22   -40.146273    2             
iter:  13  11:29:39  -4.39  -2.47   -40.145565    2             
iter:  14  11:29:44  -5.30  -2.80   -40.145732    2             
iter:  15  11:29:49  -6.42  -2.80   -40.145796    2             
iter:  16  11:29:54  -5.71  -2.78   -40.145634    2             
iter:  17  11:29:58  -5.67  -3.01   -40.145641    2             
iter:  18  11:30:03  -6.81  -3.13   -40.145656    2             
iter:  19  11:30:08  -6.82  -3.12   -40.145627    2             
iter:  20  11:30:13  -6.13  -3.26   -40.145626    2             
iter:  21  11:30:17  -7.50  -3.55   -40.145657    2             
iter:  22  11:30:22  -7.92  -3.28   -40.145626    2             
iter:  23  11:30:27  -7.04  -3.68   -40.145622    2             
iter:  24  11:30:32  -7.78  -3.85   -40.145619    2             
iter:  25  11:30:36  -7.88  -3.73   -40.145620    2             
iter:  26  11:30:41  -7.69  -4.07   -40.145620    2             

Converged after 26 iterations.

Dipole moment: (-0.000000, -0.000000, -0.000016) |e|*Ang

Energy contributions relative to reference atoms: (reference = -72637.655914)

Kinetic:        +36.059727
Potential:      -17.242457
External:        +0.000000
XC:             -58.822782
Entropy (-ST):   -0.147761
Local:           -0.066228
--------------------------
Free energy:    -40.219500
Extrapolated:   -40.145620

Fermi level: 2.95235

Warning: Showing only first 2 kpts
 Kpt  Band  Eigenvalues  Occupancy
  0    14      5.31830    0.00000
  0    15      6.43874    0.00000
  0    16      6.98194    0.00000
  0    17      7.42226    0.00000

  1    14      5.43641    0.00000
  1    15      5.94928    0.00000
  1    16      6.14889    0.00000
  1    17      6.46811    0.00000


Timing:                              incl.     excl.
-----------------------------------------------------------
Hamiltonian:                         0.557     0.002   0.0% |
 Atomic:                             0.053     0.053   0.0% |
  XC Correction:                     0.000     0.000   0.0% |
 Calculate atomic Hamiltonians:      0.194     0.194   0.1% |
 Communicate:                        0.000     0.000   0.0% |
 Initialize Hamiltonian:             0.000     0.000   0.0% |
 Poisson:                            0.003     0.003   0.0% |
 XC 3D grid:                         0.304     0.304   0.2% |
LCAO initialization:                15.012     0.073   0.1% |
 LCAO eigensolver:                  10.590     0.000   0.0% |
  Calculate projections:             0.001     0.001   0.0% |
  DenseAtomicCorrection:             0.004     0.004   0.0% |
  Distribute overlap matrix:         0.001     0.001   0.0% |
  Orbital Layouts:                   0.020     0.020   0.0% |
  Potential matrix:                 10.549    10.549   7.6% |--|
  Sum over cells:                    0.014     0.014   0.0% |
 LCAO to grid:                       1.686     1.686   1.2% |
 Set positions (LCAO WFS):           2.663     0.000   0.0% |
  Basic WFS set positions:           0.002     0.002   0.0% |
  Basis functions set positions:     0.000     0.000   0.0% |
  TCI: Calculate S, T, P:            2.660     2.660   1.9% ||
PWDescriptor:                        0.011     0.011   0.0% |
SCF-cycle:                         121.605     8.803   6.3% |--|
 Density:                           16.152     0.001   0.0% |
  Atomic density matrices:           0.081     0.081   0.1% |
  Mix:                               7.754     7.754   5.6% |-|
  Multipole moments:                 0.007     0.007   0.0% |
  Pseudo density:                    8.310     7.599   5.5% |-|
   Symmetrize density:               0.710     0.710   0.5% |
 Hamiltonian:                       10.947     0.037   0.0% |
  Atomic:                            1.219     1.219   0.9% |
   XC Correction:                    0.000     0.000   0.0% |
  Calculate atomic Hamiltonians:     2.658     2.658   1.9% ||
  Communicate:                       0.004     0.004   0.0% |
  Poisson:                           0.047     0.047   0.0% |
  XC 3D grid:                        6.982     6.982   5.0% |-|
 Orthonormalize:                     3.741     0.004   0.0% |
  Band Layouts:                      0.007     0.001   0.0% |
   Inverse Cholesky:                 0.006     0.006   0.0% |
  calc_s_matrix:                     0.313     0.313   0.2% |
  projections:                       2.990     2.990   2.2% ||
  rotate_psi:                        0.427     0.427   0.3% |
 RMM-DIIS:                          71.706     9.232   6.7% |--|
  Calculate residuals:              13.173    13.173   9.5% |---|
  DIIS step:                        33.389     0.488   0.4% |
   Calculate residuals:             29.242    29.242  21.1% |-------|
   Construct matrix:                 0.484     0.484   0.3% |
   Linear solve:                     0.099     0.099   0.1% |
   Update trial vectors:             0.615     0.615   0.4% |
   precondition:                     2.461     2.461   1.8% ||
  Find lambda:                       0.347     0.347   0.3% |
  Update psi:                        0.241     0.241   0.2% |
  precondition:                      5.170     5.170   3.7% ||
  projections:                      10.154    10.154   7.3% |--|
 Subspace diag:                     10.256     0.005   0.0% |
  Band Layouts:                      0.036     0.001   0.0% |
   Diagonalize:                      0.033     0.033   0.0% |
   Distribute results:               0.001     0.001   0.0% |
  calc_h_matrix:                     9.282     9.282   6.7% |--|
  rotate_psi:                        0.933     0.933   0.7% |
Set symmetry:                        0.125     0.125   0.1% |
Other:                               1.384     1.384   1.0% |
-----------------------------------------------------------
Total:                                       138.694 100.0%

Memory usage: 361.25 MiB
Date: Tue Feb  6 11:30:41 2018
