
  ___ ___ ___ _ _ _  
 |   |   |_  | | | | 
 | | | | | . | | | | 
 |__ |  _|___|_____|  1.3.0
 |___|_|             

User:   fantm@hebbe03-8
Date:   Tue Feb  6 12:12:10 2018
Arch:   x86_64
Pid:    12649
Python: 2.7.14
gpaw:   /apps/Hebbe/software/MPI/intel/2017.4.196-GCC-6.4.0-2.28/impi/2017.3.196/GPAW/1.3.0-Python-2.7.14/lib/python2.7/site-packages/gpaw
_gpaw:  /apps/Hebbe/software/MPI/intel/2017.4.196-GCC-6.4.0-2.28/impi/2017.3.196/GPAW/1.3.0-Python-2.7.14/bin/
       gpaw-python
ase:    /apps/Hebbe/software/MPI/intel/2017.4.196-GCC-6.4.0-2.28/impi/2017.3.196/ASE/3.15.0-Python-2.7.14/lib/python2.7/site-packages/ase-3.15.0-py2.7.egg/ase (version 3.15.0)
numpy:  /apps/Hebbe/software/MPI/intel/2017.4.196-GCC-6.4.0-2.28/impi/2017.3.196/Python/2.7.14/lib/python2.7/site-packages/numpy-1.13.1-py2.7-linux-x86_64.egg/numpy (version 1.13.1)
scipy:  /apps/Hebbe/software/MPI/intel/2017.4.196-GCC-6.4.0-2.28/impi/2017.3.196/Python/2.7.14/lib/python2.7/site-packages/scipy-0.19.1-py2.7-linux-x86_64.egg/scipy (version 0.19.1)
units:  Angstrom and eV
cores:  12

Input parameters:
  basis: dzp
  eigensolver: rmm-diis
  kpts: [16 16  1]
  mode: {ecut: 650.0,
         name: pw}
  xc: PBE

System changes: positions, numbers, cell, pbc, initial_charges, initial_magmoms 

Initialize ...

Al-setup:
  name: Aluminium
  id: 0292cae29f5d6237e50f6abdd43a7bdd
  Z: 13
  valence: 3
  core: 10
  charge: 0.0
  file: /c3se/apps/Glenn/gpaw/gpaw-setups-0.9.11271/Al.PBE.gz
  cutoffs: 1.08(comp), 1.91(filt), 2.36(core), lmax=2
  valence states:
                energy  radius
    3s(2.00)    -7.753   1.085
    3p(1.00)    -2.712   1.085
    *s          19.459   1.085
    *p          24.499   1.085
    *d           0.000   1.085

  LCAO basis set for Al:
    Name: dzp
    File: /c3se/apps/Glenn/gpaw/gpaw-setups-0.9.11271/Al.dzp.basis.gz
    Number of radial functions: 5
    Number of spherical harmonics: 13
      l=0, rc=7.8750 Bohr: 3s-sz confined orbital
      l=1, rc=10.4219 Bohr: 3p-sz confined orbital
      l=0, rc=4.6094 Bohr: 3s-dz split-valence wave
      l=1, rc=6.2812 Bohr: 3p-dz split-valence wave
      l=2, rc=10.4219 Bohr: d-type Gaussian polarization

Reference energy: -138671.888563

Spin-paired calculation

Occupation numbers:
  Fermi-Dirac: width=0.1000 eV

Convergence criteria:
  Maximum total energy change: 0.0005 eV / electron
  Maximum integral of absolute density change: 0.0001 electrons
  Maximum integral of absolute eigenstate change: 4e-08 eV^2
  Maximum number of iterations: 333

Symmetries present (total): 8

  ( 1  0  0)  ( 1  0  0)  ( 0  1  0)  ( 0  1  0)  ( 0 -1  0)  ( 0 -1  0)
  ( 0  1  0)  ( 0 -1  0)  ( 1  0  0)  (-1  0  0)  ( 1  0  0)  (-1  0  0)
  ( 0  0  1)  ( 0  0  1)  ( 0  0  1)  ( 0  0  1)  ( 0  0  1)  ( 0  0  1)

  (-1  0  0)  (-1  0  0)
  ( 0  1  0)  ( 0 -1  0)
  ( 0  0  1)  ( 0  0  1)

256 k-points: 16 x 16 x 1 Monkhorst-Pack grid
36 k-points in the irreducible part of the Brillouin zone
       k-points in crystal coordinates                weights
   0:     0.03125000    0.03125000    0.00000000          4/256
   1:     0.09375000    0.03125000    0.00000000          8/256
   2:     0.09375000    0.09375000    0.00000000          4/256
   3:     0.15625000    0.03125000    0.00000000          8/256
   4:     0.15625000    0.09375000    0.00000000          8/256
   5:     0.15625000    0.15625000    0.00000000          4/256
   6:     0.21875000    0.03125000    0.00000000          8/256
   7:     0.21875000    0.09375000    0.00000000          8/256
   8:     0.21875000    0.15625000    0.00000000          8/256
   9:     0.21875000    0.21875000    0.00000000          4/256
          ...
  35:     0.46875000    0.46875000    0.00000000          4/256

Wave functions: Plane wave expansion
  Cutoff energy: 650.000 eV
  Number of coefficients (min, max): 16957, 17208
  Using FFTW library
  Eigensolver: None  MatrixOperator buffer_size: default value or 
                              see value of nblock in input file
Diagonalizer layout: Serial LAPACKOrthonormalizer layout: Serial LAPACK 

RMM-DIIS eigensolver
       keep_htpsit: True
       Block size: 10
       DIIS iterations: 3
       Threshold for DIIS: 1.0e-16
       Limit lambda: False
       use_rayleigh: False
       trial_step: 0.1 

Densities:
  Coarse grid: 18*18*336 grid
  Fine grid: 36*36*672 grid
  Total Charge: 0.000000 

Density mixing:
  Method: separate
  Backend: pulay
  Linear mixing parameter: 0.05
  Mixing with 5 old densities
  Damping of long wave oscillations: 50 

Hamiltonian:
  XC and Coulomb potentials evaluated on a 36*36*672 grid
  Using the PBE Exchange-Correlation functional
 

Memory estimate:
  Process memory now: 611.34 MiB
  Calculator: 187.13 MiB
    Density: 49.68 MiB
      Arrays: 21.59 MiB
      Localized functions: 19.78 MiB
      Mixer: 8.31 MiB
    Hamiltonian: 14.52 MiB
      Arrays: 14.12 MiB
      XC: 0.00 MiB
      Poisson: 0.00 MiB
      vbar: 0.41 MiB
    Wavefunctions: 122.93 MiB
      Arrays psit_nG: 66.17 MiB
      Eigensolver: 23.37 MiB
      Projections: 1.05 MiB
      Projectors: 5.44 MiB
      Overlap op: 22.16 MiB
      PW-descriptor: 4.74 MiB

Total number of cores used: 12
Parallelization over k-points: 12

Number of atoms: 21
Number of atomic orbitals: 273
Number of bands in calculation: 84
Bands to converge: occupied states only
Number of valence electrons: 63

... initialized

Initializing position-dependent things.

Density initialized from atomic densities
Creating initial wave functions:
  84 bands from LCAO basis set

   .------.  
  /|      |  
 * |      |  
 | |      |  
 | |      |  
 | |      |  
 | |      |  
 | |      |  
 | |      |  
 | |      |  
 | |      |  
 Al|      |  
 | |      |  
 | | Al   |  
 | |      |  
 | |      |  
 Al|      |  
 | |      |  
 | | Al   |  
 | |      |  
 | |      |  
 Al|      |  
 | |      |  
 | | Al   |  
 | |      |  
 | |      |  
 Al|      |  
 | |      |  
 | | Al   |  
 | |      |  
 | |      |  
 Al|      |  
 | |      |  
 | | Al   |  
 | |      |  
 | |      |  
 Al|      |  
 | | Al   |  
 | |      |  
 | |      |  
 | |      |  
 Al|      |  
 | | Al   |  
 | |      |  
 | |      |  
 | |      |  
 Al|      |  
 | | Al   |  
 | |      |  
 | |      |  
 | |      |  
 Al|      |  
 | | Al   |  
 | |      |  
 | |      |  
 | |      |  
 Al|      |  
 | | Al   |  
 | |      |  
 | |      |  
 | |      |  
 Al|      |  
 | |      |  
 | |      |  
 | |      |  
 | |      |  
 | |      |  
 | |      |  
 | .------.  
 |/      /   
 *------*    

Positions:
   0 Al     0.000000    0.000000    7.500000
   1 Al     1.429770    1.429770    9.522000
   2 Al     0.000000    0.000000   11.544000
   3 Al     1.429770    1.429770   13.566000
   4 Al     0.000000    0.000000   15.588000
   5 Al     1.429770    1.429770   17.610000
   6 Al     0.000000    0.000000   19.632000
   7 Al     1.429770    1.429770   21.654000
   8 Al     0.000000    0.000000   23.676000
   9 Al     1.429770    1.429770   25.698000
  10 Al     0.000000    0.000000   27.720000
  11 Al     1.429770    1.429770   29.742000
  12 Al     0.000000    0.000000   31.764000
  13 Al     1.429770    1.429770   33.786000
  14 Al     0.000000    0.000000   35.808000
  15 Al     1.429770    1.429770   37.830000
  16 Al     0.000000    0.000000   39.852000
  17 Al     1.429770    1.429770   41.874000
  18 Al     0.000000    0.000000   43.896000
  19 Al     1.429770    1.429770   45.918000
  20 Al     0.000000    0.000000   47.940000

Unit cell:
           periodic     x           y           z      points  spacing
  1. axis:    yes    2.859540    0.000000    0.000000    18     0.1589
  2. axis:    yes    0.000000    2.859540    0.000000    18     0.1589
  3. axis:    no     0.000000    0.000000   55.440000   336     0.1650

  Lengths:   2.859540   2.859540  55.440000
  Angles:   90.000000  90.000000  90.000000

Effective grid spacing dv^(1/3) = 0.1609

                     log10-error:    total        iterations:
           time      wfs    density  energy       fermi  poisson
iter:   1  12:13:06  +1.29   +inf   -76.014368    3             
iter:   2  12:13:22  -2.33   +inf   -77.709623    3             
iter:   3  12:13:37  -3.49   +inf   -77.716625    2             
iter:   4  12:13:55  -3.35  -0.91   -80.000943    34            
iter:   5  12:14:14  -3.36  -0.86   -81.455305    34            
iter:   6  12:14:32  -3.19  -0.80   -78.803658    3             
iter:   7  12:14:51  -2.53  -0.92   -77.709376    3             
iter:   8  12:15:09  -2.54  -1.17   -77.732237    3             
iter:   9  12:15:28  -3.22  -1.43   -77.661961    3             
iter:  10  12:15:46  -3.41  -1.63   -77.856058    3             
iter:  11  12:16:05  -4.25  -1.46   -77.697267    3             
iter:  12  12:16:23  -4.16  -1.58   -77.573007    3             
iter:  13  12:16:41  -4.57  -1.77   -77.519178    2             
iter:  14  12:17:00  -4.43  -2.08   -78.147480    3             
iter:  15  12:17:18  -4.76  -1.30   -77.509584    2             
iter:  16  12:17:37  -4.88  -2.25   -77.505451    3             
iter:  17  12:17:56  -4.96  -2.40   -77.513693    3             
iter:  18  12:18:14  -5.54  -2.21   -77.505815    3             
iter:  19  12:18:33  -5.75  -2.41   -77.507874    3             
iter:  20  12:18:51  -5.93  -2.36   -77.504177    3             
iter:  21  12:19:10  -5.67  -2.56   -77.507471    2             
iter:  22  12:19:28  -5.83  -2.39   -77.517120    2             
iter:  23  12:19:47  -5.64  -2.13   -77.508345    3             
iter:  24  12:20:05  -5.75  -2.33   -77.507253    3             
iter:  25  12:20:24  -6.37  -2.42   -77.506070    3             
iter:  26  12:20:42  -6.42  -2.47   -77.504239    3             
iter:  27  12:21:01  -6.79  -2.65   -77.504381    2             
iter:  28  12:21:19  -6.98  -2.63   -77.506634    2             
iter:  29  12:21:38  -6.76  -2.44   -77.505365    2             
iter:  30  12:21:56  -6.89  -2.55   -77.504183    3             
iter:  31  12:22:15  -6.48  -2.68   -77.505198    3             
iter:  32  12:22:33  -6.70  -2.59   -77.504011    2             
iter:  33  12:22:52  -6.85  -2.70   -77.504862    2             
iter:  34  12:23:10  -6.88  -2.61   -77.506602    2             
iter:  35  12:23:28  -6.98  -2.44   -77.503969    2             
iter:  36  12:23:47  -7.18  -2.72   -77.503985    3             
iter:  37  12:24:05  -7.45  -2.76   -77.503741    2             
iter:  38  12:24:24  -7.17  -2.81   -77.504093    2             
iter:  39  12:24:42  -7.06  -2.77   -77.504185    2             
iter:  40  12:25:01  -6.79  -2.74   -77.508437    2             
iter:  41  12:25:19  -6.80  -2.35   -77.504690    2             
iter:  42  12:25:38  -7.03  -2.68   -77.503869    3             
iter:  43  12:25:56  -7.35  -2.81   -77.503791    2             
iter:  44  12:26:15  -7.64  -2.89   -77.503638    2             
iter:  45  12:26:33  -7.62  -2.92   -77.503848    2             
iter:  46  12:26:52  -7.00  -2.88   -77.507138    2             
iter:  47  12:27:10  -6.95  -2.42   -77.503819    2             
iter:  48  12:27:29  -7.11  -2.85   -77.504509    3             
iter:  49  12:27:47  -7.36  -2.72   -77.503655    3             
iter:  50  12:28:05  -7.61  -2.96   -77.503753    2             
iter:  51  12:28:24  -7.86  -2.97   -77.503688    2             
iter:  52  12:28:42  -7.39  -2.98   -77.505052    2             
iter:  53  12:29:01  -7.39  -2.61   -77.503800    2             
iter:  54  12:29:19  -7.29  -2.97   -77.503986    3             
iter:  55  12:29:38  -7.34  -2.81   -77.503748    3             
iter:  56  12:29:56  -7.62  -2.99   -77.503588    2             
iter:  57  12:30:15  -7.76  -3.05   -77.503700    2             
iter:  58  12:30:33  -7.45  -3.03   -77.504744    2             
iter:  59  12:30:52  -7.55  -2.65   -77.503552    2             
iter:  60  12:31:10  -7.69  -3.14   -77.503973    2             
iter:  61  12:31:29  -7.79  -2.90   -77.503571    2             
iter:  62  12:31:47  -7.90  -3.16   -77.503651    2             
iter:  63  12:32:06  -7.89  -3.14   -77.503599    2             
iter:  64  12:32:24  -7.31  -3.13   -77.505667    2             
iter:  65  12:32:43  -7.36  -2.54   -77.503651    2             
iter:  66  12:33:01  -7.63  -3.16   -77.503737    2             
iter:  67  12:33:20  -7.79  -2.96   -77.503575    2             
iter:  68  12:33:38  -8.42  -3.23   -77.503528    2             
iter:  69  12:33:57  -8.27  -3.29   -77.503590    2             
iter:  70  12:34:15  -7.48  -3.26   -77.505088    2             
iter:  71  12:34:33  -7.49  -2.60   -77.503542    2             
iter:  72  12:34:52  -7.73  -3.28   -77.503973    2             
iter:  73  12:35:10  -7.76  -2.92   -77.503550    2             
iter:  74  12:35:29  -8.37  -3.30   -77.503559    2             
iter:  75  12:35:47  -8.60  -3.38   -77.503531    2             
iter:  76  12:36:06  -8.00  -3.39   -77.504011    2             
iter:  77  12:36:24  -7.98  -2.86   -77.503568    2             
iter:  78  12:36:43  -7.96  -3.37   -77.503665    2             
iter:  79  12:37:01  -7.86  -3.04   -77.503603    2             
iter:  80  12:37:20  -8.40  -3.29   -77.503528    2             
iter:  81  12:37:38  -8.61  -3.45   -77.503555    2             
iter:  82  12:37:57  -8.25  -3.46   -77.503787    2             
iter:  83  12:38:15  -8.23  -2.99   -77.503533    2             
iter:  84  12:38:34  -8.42  -3.48   -77.503653    2             
iter:  85  12:38:52  -8.27  -3.23   -77.503537    2             
iter:  86  12:39:11  -8.59  -3.43   -77.503546    2             
iter:  87  12:39:29  -8.65  -3.53   -77.503522    2             
iter:  88  12:39:48  -8.22  -3.53   -77.503801    2             
iter:  89  12:40:06  -8.16  -2.98   -77.503550    2             
iter:  90  12:40:25  -8.68  -3.52   -77.503535    2             
iter:  91  12:40:43  -8.54  -3.40   -77.503564    2             
iter:  92  12:41:02  -8.97  -3.47   -77.503531    2             
iter:  93  12:41:20  -8.96  -3.61   -77.503546    2             
iter:  94  12:41:39  -8.41  -3.63   -77.503702    2             
iter:  95  12:41:57  -8.29  -3.07   -77.503531    2             
iter:  96  12:42:16  -8.59  -3.56   -77.503602    2             
iter:  97  12:42:35  -8.49  -3.37   -77.503530    2             
iter:  98  12:42:53  -8.89  -3.53   -77.503534    2             
iter:  99  12:43:12  -9.26  -3.69   -77.503524    2             
iter: 100  12:43:30  -8.85  -3.73   -77.503596    2             
iter: 101  12:43:49  -8.62  -3.28   -77.503548    2             
iter: 102  12:44:08  -8.76  -3.60   -77.503531    2             
iter: 103  12:44:26  -8.57  -3.48   -77.503568    2             
iter: 104  12:44:45  -8.85  -3.53   -77.503528    2             
iter: 105  12:45:03  -9.34  -3.75   -77.503535    2             
iter: 106  12:45:21  -9.19  -3.81   -77.503553    2             
iter: 107  12:45:40  -9.01  -3.48   -77.503528    2             
iter: 108  12:45:58  -9.15  -3.74   -77.503554    2             
iter: 109  12:46:17  -8.95  -3.64   -77.503525    2             
iter: 110  12:46:35  -9.02  -3.68   -77.503534    2             
iter: 111  12:46:54  -9.26  -3.81   -77.503525    2             
iter: 112  12:47:12  -9.22  -3.87   -77.503553    2             
iter: 113  12:47:31  -9.13  -3.51   -77.503537    2             
iter: 114  12:47:49  -9.50  -3.83   -77.503523    2             
iter: 115  12:48:08  -9.37  -3.85   -77.503540    2             
iter: 116  12:48:26  -9.45  -3.81   -77.503527    2             
iter: 117  12:48:45  -9.58  -3.92   -77.503532    2             
iter: 118  12:49:03  -9.30  -3.97   -77.503544    2             
iter: 119  12:49:22  -9.22  -3.56   -77.503524    2             
iter: 120  12:49:40  -9.44  -3.91   -77.503542    2             
iter: 121  12:49:59  -9.51  -3.81   -77.503524    2             
iter: 122  12:50:17  -9.71  -3.96   -77.503531    2             
iter: 123  12:50:36  -9.95  -4.01   -77.503527    2             

Converged after 123 iterations.

Dipole moment: (-0.000000, -0.000000, -0.000066) |e|*Ang

Energy contributions relative to reference atoms: (reference = -138671.888563)

Kinetic:        +72.051871
Potential:      -34.222983
External:        +0.000000
XC:            -115.047663
Entropy (-ST):   -0.290600
Local:           -0.139452
--------------------------
Free energy:    -77.648827
Extrapolated:   -77.503527

Fermi level: 4.49554

Warning: Showing only first 2 kpts
 Kpt  Band  Eigenvalues  Occupancy
  0    29      8.58514    0.00000
  0    30      8.79953    0.00000
  0    31      8.90244    0.00000
  0    32      8.96127    0.00000

  1    29      7.48854    0.00000
  1    30      7.58177    0.00000
  1    31      7.71383    0.00000
  1    32      7.87039    0.00000


Timing:                              incl.     excl.
-----------------------------------------------------------
Hamiltonian:                         1.061     0.002   0.0% |
 Atomic:                             0.104     0.057   0.0% |
  XC Correction:                     0.047     0.047   0.0% |
 Calculate atomic Hamiltonians:      0.456     0.456   0.0% |
 Communicate:                        0.000     0.000   0.0% |
 Initialize Hamiltonian:             0.000     0.000   0.0% |
 Poisson:                            0.004     0.004   0.0% |
 XC 3D grid:                         0.493     0.493   0.0% |
LCAO initialization:                34.102     0.073   0.0% |
 LCAO eigensolver:                  22.325     0.001   0.0% |
  Calculate projections:             0.006     0.006   0.0% |
  DenseAtomicCorrection:             0.018     0.018   0.0% |
  Distribute overlap matrix:         0.002     0.002   0.0% |
  Orbital Layouts:                   0.100     0.100   0.0% |
  Potential matrix:                 22.151    22.151   1.0% |
  Sum over cells:                    0.048     0.048   0.0% |
 LCAO to grid:                       6.176     6.176   0.3% |
 Set positions (LCAO WFS):           5.528     0.002   0.0% |
  Basic WFS set positions:           0.004     0.004   0.0% |
  Basis functions set positions:     0.000     0.000   0.0% |
  TCI: Calculate S, T, P:            5.522     5.522   0.2% |
PWDescriptor:                        0.016     0.016   0.0% |
SCF-cycle:                        2267.279   158.160   6.9% |--|
 Density:                          249.586     0.003   0.0% |
  Atomic density matrices:           0.733     0.733   0.0% |
  Mix:                             125.103   125.103   5.4% |-|
  Multipole moments:                 0.063     0.063   0.0% |
  Pseudo density:                  123.685   117.771   5.1% |-|
   Symmetrize density:               5.913     5.913   0.3% |
 Hamiltonian:                      114.893     0.290   0.0% |
  Atomic:                           12.517     6.827   0.3% |
   XC Correction:                    5.690     5.690   0.2% |
  Calculate atomic Hamiltonians:    42.192    42.192   1.8% ||
  Communicate:                       0.028     0.028   0.0% |
  Poisson:                           0.400     0.400   0.0% |
  XC 3D grid:                       59.466    59.466   2.6% ||
 Orthonormalize:                    74.985     0.020   0.0% |
  Band Layouts:                      0.075     0.003   0.0% |
   Inverse Cholesky:                 0.072     0.072   0.0% |
  calc_s_matrix:                     6.568     6.568   0.3% |
  projections:                      57.564    57.564   2.5% ||
  rotate_psi:                       10.759    10.759   0.5% |
 RMM-DIIS:                        1509.138   131.283   5.7% |-|
  Calculate residuals:             327.434   327.434  14.2% |-----|
  DIIS step:                       711.040     6.843   0.3% |
   Calculate residuals:            652.970   652.970  28.3% |----------|
   Construct matrix:                 5.964     5.964   0.3% |
   Linear solve:                     0.884     0.884   0.0% |
   Update trial vectors:             8.870     8.870   0.4% |
   precondition:                    35.509    35.509   1.5% ||
  Find lambda:                       4.290     4.290   0.2% |
  Update psi:                        3.439     3.439   0.1% |
  precondition:                     74.226    74.226   3.2% ||
  projections:                     257.425   257.425  11.2% |---|
 Subspace diag:                    160.517     0.036   0.0% |
  Band Layouts:                      0.497     0.006   0.0% |
   Diagonalize:                      0.486     0.486   0.0% |
   Distribute results:               0.006     0.006   0.0% |
  calc_h_matrix:                   137.521   137.521   6.0% |-|
  rotate_psi:                       22.464    22.464   1.0% |
Set symmetry:                        0.118     0.118   0.0% |
Other:                               2.610     2.610   0.1% |
-----------------------------------------------------------
Total:                                      2305.185 100.0%

Memory usage: 667.36 MiB
Date: Tue Feb  6 12:50:36 2018
