
  ___ ___ ___ _ _ _  
 |   |   |_  | | | | 
 | | | | | . | | | | 
 |__ |  _|___|_____|  1.3.0
 |___|_|             

User:   edenborg@hebbe14-7
Date:   Tue Feb  6 11:29:35 2018
Arch:   x86_64
Pid:    4521
Python: 2.7.14
gpaw:   /apps/Hebbe/software/MPI/intel/2017.4.196-GCC-6.4.0-2.28/impi/2017.3.196/GPAW/1.3.0-Python-2.7.14/lib/python2.7/site-packages/gpaw
_gpaw:  /apps/Hebbe/software/MPI/intel/2017.4.196-GCC-6.4.0-2.28/impi/2017.3.196/GPAW/1.3.0-Python-2.7.14/bin/
       gpaw-python
ase:    /c3se/users/edenborg/Hebbe/ase/ase (version 3.15.1b1)
numpy:  /apps/Hebbe/software/MPI/intel/2017.4.196-GCC-6.4.0-2.28/impi/2017.3.196/Python/2.7.14/lib/python2.7/site-packages/numpy-1.13.1-py2.7-linux-x86_64.egg/numpy (version 1.13.1)
scipy:  /apps/Hebbe/software/MPI/intel/2017.4.196-GCC-6.4.0-2.28/impi/2017.3.196/Python/2.7.14/lib/python2.7/site-packages/scipy-0.19.1-py2.7-linux-x86_64.egg/scipy (version 0.19.1)
units:  Angstrom and eV
cores:  12

Input parameters:
  basis: dzp
  eigensolver: rmm-diis
  kpts: [16 16  1]
  mode: {ecut: 650.0,
         name: pw}
  xc: PBE

System changes: positions, numbers, cell, pbc, initial_charges, initial_magmoms 

Initialize ...

Al-setup:
  name: Aluminium
  id: 0292cae29f5d6237e50f6abdd43a7bdd
  Z: 13
  valence: 3
  core: 10
  charge: 0.0
  file: /c3se/apps/Glenn/gpaw/gpaw-setups-0.9.11271/Al.PBE.gz
  cutoffs: 1.08(comp), 1.91(filt), 2.36(core), lmax=2
  valence states:
                energy  radius
    3s(2.00)    -7.753   1.085
    3p(1.00)    -2.712   1.085
    *s          19.459   1.085
    *p          24.499   1.085
    *d           0.000   1.085

  LCAO basis set for Al:
    Name: dzp
    File: /c3se/apps/Glenn/gpaw/gpaw-setups-0.9.11271/Al.dzp.basis.gz
    Number of radial functions: 5
    Number of spherical harmonics: 13
      l=0, rc=7.8750 Bohr: 3s-sz confined orbital
      l=1, rc=10.4219 Bohr: 3p-sz confined orbital
      l=0, rc=4.6094 Bohr: 3s-dz split-valence wave
      l=1, rc=6.2812 Bohr: 3p-dz split-valence wave
      l=2, rc=10.4219 Bohr: d-type Gaussian polarization

Reference energy: -72637.655914

Spin-paired calculation

Occupation numbers:
  Fermi-Dirac: width=0.1000 eV

Convergence criteria:
  Maximum total energy change: 0.0005 eV / electron
  Maximum integral of absolute density change: 0.0001 electrons
  Maximum integral of absolute eigenstate change: 4e-08 eV^2
  Maximum number of iterations: 333

Symmetries present (total): 6

  ( 1  0  0)  ( 1 -1  0)  ( 0  1  0)  ( 0 -1  0)  (-1  1  0)  (-1  0  0)
  ( 0  1  0)  ( 0 -1  0)  ( 1  0  0)  ( 1 -1  0)  (-1  0  0)  (-1  1  0)
  ( 0  0  1)  ( 0  0  1)  ( 0  0  1)  ( 0  0  1)  ( 0  0  1)  ( 0  0  1)
Note: your k-points are not as symmetric as your crystal!

256 k-points: 16 x 16 x 1 Monkhorst-Pack grid
72 k-points in the irreducible part of the Brillouin zone
       k-points in crystal coordinates                weights
   0:     0.03125000   -0.03125000    0.00000000          2/256
   1:     0.03125000    0.03125000    0.00000000          2/256
   2:     0.09375000   -0.09375000    0.00000000          2/256
   3:     0.09375000   -0.03125000    0.00000000          4/256
   4:     0.09375000    0.03125000    0.00000000          4/256
   5:     0.09375000    0.09375000    0.00000000          2/256
   6:     0.15625000   -0.15625000    0.00000000          2/256
   7:     0.15625000   -0.09375000    0.00000000          4/256
   8:     0.15625000   -0.03125000    0.00000000          4/256
   9:     0.15625000    0.03125000    0.00000000          4/256
          ...
  71:     0.46875000    0.46875000    0.00000000          2/256

Wave functions: Plane wave expansion
  Cutoff energy: 650.000 eV
  Number of coefficients (min, max): 10093, 10310
  Using FFTW library
  Eigensolver: None  MatrixOperator buffer_size: default value or 
                              see value of nblock in input file
Diagonalizer layout: Serial LAPACKOrthonormalizer layout: Serial LAPACK 

RMM-DIIS eigensolver
       keep_htpsit: True
       Block size: 10
       DIIS iterations: 3
       Threshold for DIIS: 1.0e-16
       Limit lambda: False
       use_rayleigh: False
       trial_step: 0.1 

Densities:
  Coarse grid: 15*15*225 grid
  Fine grid: 30*30*450 grid
  Total Charge: 0.000000 

Density mixing:
  Method: separate
  Backend: pulay
  Linear mixing parameter: 0.05
  Mixing with 5 old densities
  Damping of long wave oscillations: 50 

Hamiltonian:
  XC and Coulomb potentials evaluated on a 30*30*450 grid
  Using the PBE Exchange-Correlation functional
 

Memory estimate:
  Process memory now: 269.18 MiB
  Calculator: 94.14 MiB
    Density: 21.55 MiB
      Arrays: 10.04 MiB
      Localized functions: 7.64 MiB
      Mixer: 3.86 MiB
    Hamiltonian: 6.72 MiB
      Arrays: 6.57 MiB
      XC: 0.00 MiB
      Poisson: 0.00 MiB
      vbar: 0.16 MiB
    Wavefunctions: 65.87 MiB
      Arrays psit_nG: 41.53 MiB
      Eigensolver: 7.71 MiB
      Projections: 0.58 MiB
      Projectors: 6.48 MiB
      Overlap op: 6.95 MiB
      PW-descriptor: 2.63 MiB

Total number of cores used: 12
Parallelization over k-points: 12

Number of atoms: 11
Number of atomic orbitals: 143
Number of bands in calculation: 44
Bands to converge: occupied states only
Number of valence electrons: 33

... initialized

Initializing position-dependent things.

Density initialized from atomic densities
Creating initial wave functions:
  44 bands from LCAO basis set

                    
                    
                    
                    
       Al           
                    
        Al          
                    
                    
                    
           Al       
                    
                    
       Al           
                    
        Al          
                    
                    
           Al       
                    
                    
                    
       Al           
                    
        Al          
                    
                    
           Al       
                    
                    
                    
       Al           
                    
        Al          
                    
                    
                    
                    

Positions:
   0 Al     0.000000    1.650956    7.500000
   1 Al     0.000000    0.000000    9.834804
   2 Al     1.429770    0.825478   12.169609
   3 Al     0.000000    1.650956   14.504413
   4 Al     0.000000    0.000000   16.839218
   5 Al     1.429770    0.825478   19.174022
   6 Al     0.000000    1.650956   21.508827
   7 Al     0.000000    0.000000   23.843631
   8 Al     1.429770    0.825478   26.178436
   9 Al     0.000000    1.650956   28.513240
  10 Al     0.000000    0.000000   30.848045

Unit cell:
           periodic     x           y           z      points  spacing
  1. axis:    yes    2.859540    0.000000    0.000000    15     0.1651
  2. axis:    yes    1.429770    2.476434    0.000000    15     0.1651
  3. axis:    no     0.000000    0.000000   38.348045   225     0.1704

  Lengths:   2.859540   2.859540  38.348045
  Angles:   90.000000  90.000000  60.000000

Effective grid spacing dv^(1/3) = 0.1751

                     log10-error:    total        iterations:
           time      wfs    density  energy       fermi  poisson
iter:   1  11:29:58  +1.28   +inf   -39.671698    2             
iter:   2  11:30:05  -2.23   +inf   -40.566281    3             
iter:   3  11:30:11  -3.36   +inf   -40.570913    2             
iter:   4  11:30:18  -3.31  -0.89   -40.790337    34            
iter:   5  11:30:26  -3.50  -0.92   -40.736190    33            
iter:   6  11:30:33  -2.67  -0.92   -40.394492    34            
iter:   7  11:30:41  -2.18  -1.08   -40.512247    3             
iter:   8  11:30:48  -2.67  -1.34   -40.421172    3             
iter:   9  11:30:55  -3.47  -1.70   -40.392767    2             
iter:  10  11:31:03  -3.54  -1.93   -40.380996    3             
iter:  11  11:31:10  -4.29  -2.18   -40.379024    2             
iter:  12  11:31:17  -4.33  -2.27   -40.377836    2             
iter:  13  11:31:25  -4.64  -2.42   -40.377020    2             
iter:  14  11:31:32  -5.60  -2.66   -40.380197    2             
iter:  15  11:31:39  -6.14  -2.28   -40.377064    2             
iter:  16  11:31:47  -5.27  -2.67   -40.376941    2             
iter:  17  11:31:54  -5.89  -2.82   -40.377000    2             
iter:  18  11:32:01  -5.62  -2.86   -40.377008    2             
iter:  19  11:32:09  -6.53  -2.93   -40.376957    2             
iter:  20  11:32:16  -6.10  -3.06   -40.377522    2             
iter:  21  11:32:23  -6.74  -2.67   -40.377045    2             
iter:  22  11:32:31  -6.01  -3.00   -40.376947    2             
iter:  23  11:32:38  -6.87  -3.39   -40.376947    2             
iter:  24  11:32:45  -7.11  -3.47   -40.376942    2             
iter:  25  11:32:53  -8.06  -3.62   -40.376941    2             
iter:  26  11:33:00  -7.29  -3.66   -40.376956    2             
iter:  27  11:33:07  -8.31  -3.40   -40.376941    2             
iter:  28  11:33:15  -7.81  -3.71   -40.376939    2             
iter:  29  11:33:22  -7.78  -3.83   -40.376939    2             
iter:  30  11:33:29  -8.08  -3.88   -40.376939    2             
iter:  31  11:33:37  -8.01  -3.91   -40.376940    2             
iter:  32  11:33:44  -8.31  -3.85   -40.376941    2             
iter:  33  11:33:51  -8.91  -3.92   -40.376941    2             
iter:  34  11:33:59  -8.73  -3.88   -40.376940    2             
iter:  35  11:34:06  -8.41  -4.04   -40.376940    2             

Converged after 35 iterations.

Dipole moment: (2.092418, 1.208058, -0.000056) |e|*Ang

Energy contributions relative to reference atoms: (reference = -72637.655914)

Kinetic:        +36.651746
Potential:      -17.323319
External:        +0.000000
XC:             -59.565231
Entropy (-ST):   -0.154840
Local:           -0.062717
--------------------------
Free energy:    -40.454360
Extrapolated:   -40.376940

Fermi level: 3.46613

Warning: Showing only first 2 kpts
 Kpt  Band  Eigenvalues  Occupancy
  0    14      3.15132    0.01498
  0    15      4.42707    0.00000
  0    16      5.65276    0.00000
  0    17      6.70053    0.00000

  1    14      3.10805    0.01520
  1    15      4.38447    0.00000
  1    16      5.61056    0.00000
  1    17      6.65767    0.00000


Timing:                              incl.     excl.
-----------------------------------------------------------
Hamiltonian:                         0.408     0.001   0.0% |
 Atomic:                             0.053     0.053   0.0% |
  XC Correction:                     0.000     0.000   0.0% |
 Calculate atomic Hamiltonians:      0.123     0.123   0.0% |
 Communicate:                        0.000     0.000   0.0% |
 Initialize Hamiltonian:             0.000     0.000   0.0% |
 Poisson:                            0.002     0.002   0.0% |
 XC 3D grid:                         0.228     0.228   0.1% |
LCAO initialization:                14.325     0.073   0.0% |
 LCAO eigensolver:                   8.713     0.001   0.0% |
  Calculate projections:             0.002     0.002   0.0% |
  DenseAtomicCorrection:             0.007     0.007   0.0% |
  Distribute overlap matrix:         0.001     0.001   0.0% |
  Orbital Layouts:                   0.038     0.038   0.0% |
  Potential matrix:                  8.622     8.622   3.2% ||
  Sum over cells:                    0.042     0.042   0.0% |
 LCAO to grid:                       2.577     2.577   0.9% |
 Set positions (LCAO WFS):           2.962     0.001   0.0% |
  Basic WFS set positions:           0.002     0.002   0.0% |
  Basis functions set positions:     0.000     0.000   0.0% |
  TCI: Calculate S, T, P:            2.960     2.960   1.1% |
PWDescriptor:                        0.013     0.013   0.0% |
SCF-cycle:                         255.594    21.726   8.0% |--|
 Density:                           22.578     0.001   0.0% |
  Atomic density matrices:           0.120     0.120   0.0% |
  Mix:                               7.050     7.050   2.6% ||
  Multipole moments:                 0.010     0.010   0.0% |
  Pseudo density:                   15.397    14.839   5.5% |-|
   Symmetrize density:               0.558     0.558   0.2% |
 Hamiltonian:                       11.115     0.044   0.0% |
  Atomic:                            1.675     1.675   0.6% |
   XC Correction:                    0.000     0.000   0.0% |
  Calculate atomic Hamiltonians:     2.273     2.273   0.8% |
  Communicate:                       0.005     0.005   0.0% |
  Poisson:                           0.043     0.043   0.0% |
  XC 3D grid:                        7.075     7.075   2.6% ||
 Orthonormalize:                     9.314     0.010   0.0% |
  Band Layouts:                      0.018     0.002   0.0% |
   Inverse Cholesky:                 0.017     0.017   0.0% |
  calc_s_matrix:                     0.784     0.784   0.3% |
  projections:                       7.428     7.428   2.7% ||
  rotate_psi:                        1.074     1.074   0.4% |
 RMM-DIIS:                         169.976    18.336   6.8% |--|
  Calculate residuals:              33.057    33.057  12.2% |----|
  DIIS step:                        78.731     1.229   0.5% |
   Calculate residuals:             68.189    68.189  25.1% |---------|
   Construct matrix:                 1.226     1.226   0.5% |
   Linear solve:                     0.272     0.272   0.1% |
   Update trial vectors:             1.569     1.569   0.6% |
   precondition:                     6.247     6.247   2.3% ||
  Find lambda:                       0.895     0.895   0.3% |
  Update psi:                        0.607     0.607   0.2% |
  precondition:                     13.131    13.131   4.8% |-|
  projections:                      25.218    25.218   9.3% |---|
 Subspace diag:                     20.885     0.015   0.0% |
  Band Layouts:                      0.096     0.003   0.0% |
   Diagonalize:                      0.090     0.090   0.0% |
   Distribute results:               0.003     0.003   0.0% |
  calc_h_matrix:                    18.473    18.473   6.8% |--|
  rotate_psi:                        2.301     2.301   0.8% |
Set symmetry:                        0.104     0.104   0.0% |
Other:                               1.173     1.173   0.4% |
-----------------------------------------------------------
Total:                                       271.617 100.0%

Memory usage: 319.39 MiB
Date: Tue Feb  6 11:34:06 2018
