
  ___ ___ ___ _ _ _  
 |   |   |_  | | | | 
 | | | | | . | | | | 
 |__ |  _|___|_____|  1.3.0
 |___|_|             

User:   fantm@hebbe03-8
Date:   Tue Feb  6 11:24:59 2018
Arch:   x86_64
Pid:    12649
Python: 2.7.14
gpaw:   /apps/Hebbe/software/MPI/intel/2017.4.196-GCC-6.4.0-2.28/impi/2017.3.196/GPAW/1.3.0-Python-2.7.14/lib/python2.7/site-packages/gpaw
_gpaw:  /apps/Hebbe/software/MPI/intel/2017.4.196-GCC-6.4.0-2.28/impi/2017.3.196/GPAW/1.3.0-Python-2.7.14/bin/
       gpaw-python
ase:    /apps/Hebbe/software/MPI/intel/2017.4.196-GCC-6.4.0-2.28/impi/2017.3.196/ASE/3.15.0-Python-2.7.14/lib/python2.7/site-packages/ase-3.15.0-py2.7.egg/ase (version 3.15.0)
numpy:  /apps/Hebbe/software/MPI/intel/2017.4.196-GCC-6.4.0-2.28/impi/2017.3.196/Python/2.7.14/lib/python2.7/site-packages/numpy-1.13.1-py2.7-linux-x86_64.egg/numpy (version 1.13.1)
scipy:  /apps/Hebbe/software/MPI/intel/2017.4.196-GCC-6.4.0-2.28/impi/2017.3.196/Python/2.7.14/lib/python2.7/site-packages/scipy-0.19.1-py2.7-linux-x86_64.egg/scipy (version 0.19.1)
units:  Angstrom and eV
cores:  12

Input parameters:
  basis: dzp
  eigensolver: rmm-diis
  kpts: [16 16  1]
  mode: {ecut: 650.0,
         name: pw}
  xc: PBE

System changes: positions, numbers, cell, pbc, initial_charges, initial_magmoms 

Initialize ...

Al-setup:
  name: Aluminium
  id: 0292cae29f5d6237e50f6abdd43a7bdd
  Z: 13
  valence: 3
  core: 10
  charge: 0.0
  file: /c3se/apps/Glenn/gpaw/gpaw-setups-0.9.11271/Al.PBE.gz
  cutoffs: 1.08(comp), 1.91(filt), 2.36(core), lmax=2
  valence states:
                energy  radius
    3s(2.00)    -7.753   1.085
    3p(1.00)    -2.712   1.085
    *s          19.459   1.085
    *p          24.499   1.085
    *d           0.000   1.085

  LCAO basis set for Al:
    Name: dzp
    File: /c3se/apps/Glenn/gpaw/gpaw-setups-0.9.11271/Al.dzp.basis.gz
    Number of radial functions: 5
    Number of spherical harmonics: 13
      l=0, rc=7.8750 Bohr: 3s-sz confined orbital
      l=1, rc=10.4219 Bohr: 3p-sz confined orbital
      l=0, rc=4.6094 Bohr: 3s-dz split-valence wave
      l=1, rc=6.2812 Bohr: 3p-dz split-valence wave
      l=2, rc=10.4219 Bohr: d-type Gaussian polarization

Reference energy: -19810.269795

Spin-paired calculation

Occupation numbers:
  Fermi-Dirac: width=0.1000 eV

Convergence criteria:
  Maximum total energy change: 0.0005 eV / electron
  Maximum integral of absolute density change: 0.0001 electrons
  Maximum integral of absolute eigenstate change: 4e-08 eV^2
  Maximum number of iterations: 333

Symmetries present (total): 8

  ( 1  0  0)  ( 1  0  0)  ( 0  1  0)  ( 0  1  0)  ( 0 -1  0)  ( 0 -1  0)
  ( 0  1  0)  ( 0 -1  0)  ( 1  0  0)  (-1  0  0)  ( 1  0  0)  (-1  0  0)
  ( 0  0  1)  ( 0  0  1)  ( 0  0  1)  ( 0  0  1)  ( 0  0  1)  ( 0  0  1)

  (-1  0  0)  (-1  0  0)
  ( 0  1  0)  ( 0 -1  0)
  ( 0  0  1)  ( 0  0  1)

256 k-points: 16 x 16 x 1 Monkhorst-Pack grid
36 k-points in the irreducible part of the Brillouin zone
       k-points in crystal coordinates                weights
   0:     0.03125000    0.03125000    0.00000000          4/256
   1:     0.09375000    0.03125000    0.00000000          8/256
   2:     0.09375000    0.09375000    0.00000000          4/256
   3:     0.15625000    0.03125000    0.00000000          8/256
   4:     0.15625000    0.09375000    0.00000000          8/256
   5:     0.15625000    0.15625000    0.00000000          4/256
   6:     0.21875000    0.03125000    0.00000000          8/256
   7:     0.21875000    0.09375000    0.00000000          8/256
   8:     0.21875000    0.15625000    0.00000000          8/256
   9:     0.21875000    0.21875000    0.00000000          4/256
          ...
  35:     0.46875000    0.46875000    0.00000000          4/256

Wave functions: Plane wave expansion
  Cutoff energy: 650.000 eV
  Number of coefficients (min, max): 5816, 5920
  Using FFTW library
  Eigensolver: None  MatrixOperator buffer_size: default value or 
                              see value of nblock in input file
Diagonalizer layout: Serial LAPACKOrthonormalizer layout: Serial LAPACK 

RMM-DIIS eigensolver
       keep_htpsit: True
       Block size: 10
       DIIS iterations: 3
       Threshold for DIIS: 1.0e-16
       Limit lambda: False
       use_rayleigh: False
       trial_step: 0.1 

Densities:
  Coarse grid: 18*18*112 grid
  Fine grid: 36*36*224 grid
  Total Charge: 0.000000 

Density mixing:
  Method: separate
  Backend: pulay
  Linear mixing parameter: 0.05
  Mixing with 5 old densities
  Damping of long wave oscillations: 50 

Hamiltonian:
  XC and Coulomb potentials evaluated on a 36*36*224 grid
  Using the PBE Exchange-Correlation functional
 

Memory estimate:
  Process memory now: 115.40 MiB
  Calculator: 30.35 MiB
    Density: 16.17 MiB
      Arrays: 7.20 MiB
      Localized functions: 6.20 MiB
      Mixer: 2.77 MiB
    Hamiltonian: 4.83 MiB
      Arrays: 4.71 MiB
      XC: 0.00 MiB
      Poisson: 0.00 MiB
      vbar: 0.13 MiB
    Wavefunctions: 9.35 MiB
      Arrays psit_nG: 3.25 MiB
      Eigensolver: 1.54 MiB
      Projections: 0.02 MiB
      Projectors: 1.87 MiB
      Overlap op: 1.09 MiB
      PW-descriptor: 1.58 MiB

Total number of cores used: 12
Parallelization over k-points: 12

Number of atoms: 3
Number of atomic orbitals: 39
Number of bands in calculation: 12
Bands to converge: occupied states only
Number of valence electrons: 9

... initialized

Initializing position-dependent things.

Density initialized from atomic densities
Creating initial wave functions:
  12 bands from LCAO basis set

   .------.  
  /|      |  
 * |      |  
 | |      |  
 | |      |  
 | |      |  
 | |      |  
 | |      |  
 | |      |  
 | |      |  
 | |      |  
 Al|      |  
 | |      |  
 | | Al   |  
 | |      |  
 | |      |  
 Al|      |  
 | |      |  
 | |      |  
 | |      |  
 | |      |  
 | |      |  
 | |      |  
 | .------.  
 |/      /   
 *------*    

Positions:
   0 Al     0.000000    0.000000    7.500000
   1 Al     1.429770    1.429770    9.522000
   2 Al     0.000000    0.000000   11.544000

Unit cell:
           periodic     x           y           z      points  spacing
  1. axis:    yes    2.859540    0.000000    0.000000    18     0.1589
  2. axis:    yes    0.000000    2.859540    0.000000    18     0.1589
  3. axis:    no     0.000000    0.000000   19.044000   112     0.1700

  Lengths:   2.859540   2.859540  19.044000
  Angles:   90.000000  90.000000  90.000000

Effective grid spacing dv^(1/3) = 0.1625

                     log10-error:    total        iterations:
           time      wfs    density  energy       fermi  poisson
iter:   1  11:25:03  +1.21   +inf   -10.118606    3             
iter:   2  11:25:04  -2.01   +inf   -10.357143    3             
iter:   3  11:25:04  -3.21   +inf   -10.359314    2             
iter:   4  11:25:05  -3.08  -0.87   -10.304996    3             
iter:   5  11:25:06  -1.99  -0.92   -10.258460    31            
iter:   6  11:25:06  -1.84  -1.10   -10.241280    3             
iter:   7  11:25:07  -2.84  -1.65   -10.239745    3             
iter:   8  11:25:08  -2.62  -1.82   -10.236509    3             
iter:   9  11:25:09  -3.89  -2.34   -10.237136    3             
iter:  10  11:25:09  -4.82  -2.69   -10.237194    2             
iter:  11  11:25:10  -4.92  -2.77   -10.237196    3             
iter:  12  11:25:11  -5.96  -3.55   -10.237204    2             
iter:  13  11:25:11  -6.72  -3.69   -10.237205    2             
iter:  14  11:25:12  -6.68  -3.71   -10.237203    2             
iter:  15  11:25:13  -7.66  -3.82   -10.237203    2             
iter:  16  11:25:14  -7.14  -3.87   -10.237201    2             
iter:  17  11:25:14  -8.42  -4.37   -10.237201    1             

Converged after 17 iterations.

Dipole moment: (-0.000000, -0.000000, 0.000000) |e|*Ang

Energy contributions relative to reference atoms: (reference = -19810.269795)

Kinetic:         +7.339198
Potential:       -3.710164
External:        +0.000000
XC:             -13.833298
Entropy (-ST):   -0.042271
Local:           -0.011801
--------------------------
Free energy:    -10.258337
Extrapolated:   -10.237201

Fermi level: -0.67241

Warning: Showing only first 2 kpts
 Kpt  Band  Eigenvalues  Occupancy
  0     2     -5.34674    0.03125
  0     3     -2.35684    0.03125
  0     4      1.47871    0.00000
  0     5      3.28457    0.00000

  1     2     -5.20862    0.06250
  1     3     -2.22572    0.06250
  1     4      1.60154    0.00000
  1     5      2.99388    0.00000


Timing:                              incl.     excl.
-----------------------------------------------------------
Hamiltonian:                         0.289     0.002   0.0% |
 Atomic:                             0.053     0.053   0.4% |
  XC Correction:                     0.000     0.000   0.0% |
 Calculate atomic Hamiltonians:      0.070     0.070   0.5% |
 Communicate:                        0.000     0.000   0.0% |
 Initialize Hamiltonian:             0.000     0.000   0.0% |
 Poisson:                            0.002     0.002   0.0% |
 XC 3D grid:                         0.163     0.163   1.1% |
LCAO initialization:                 2.343     0.074   0.5% |
 LCAO eigensolver:                   1.687     0.000   0.0% |
  Calculate projections:             0.000     0.000   0.0% |
  DenseAtomicCorrection:             0.001     0.001   0.0% |
  Distribute overlap matrix:         0.000     0.000   0.0% |
  Orbital Layouts:                   0.002     0.002   0.0% |
  Potential matrix:                  1.682     1.682  11.3% |----|
  Sum over cells:                    0.002     0.002   0.0% |
 LCAO to grid:                       0.170     0.170   1.1% |
 Set positions (LCAO WFS):           0.413     0.000   0.0% |
  Basic WFS set positions:           0.001     0.001   0.0% |
  Basis functions set positions:     0.000     0.000   0.0% |
  TCI: Calculate S, T, P:            0.412     0.412   2.8% ||
PWDescriptor:                        0.006     0.006   0.0% |
SCF-cycle:                          11.368     0.798   5.4% |-|
 Density:                            1.753     0.000   0.0% |
  Atomic density matrices:           0.019     0.019   0.1% |
  Mix:                               0.824     0.824   5.6% |-|
  Multipole moments:                 0.002     0.002   0.0% |
  Pseudo density:                    0.909     0.678   4.6% |-|
   Symmetrize density:               0.231     0.231   1.6% ||
 Hamiltonian:                        3.303     0.013   0.1% |
  Atomic:                            0.729     0.729   4.9% |-|
   XC Correction:                    0.000     0.000   0.0% |
  Calculate atomic Hamiltonians:     0.290     0.290   2.0% ||
  Communicate:                       0.002     0.002   0.0% |
  Poisson:                           0.015     0.015   0.1% |
  XC 3D grid:                        2.254     2.254  15.2% |-----|
 Orthonormalize:                     0.259     0.002   0.0% |
  Band Layouts:                      0.002     0.000   0.0% |
   Inverse Cholesky:                 0.001     0.001   0.0% |
  calc_s_matrix:                     0.017     0.017   0.1% |
  projections:                       0.220     0.220   1.5% ||
  rotate_psi:                        0.018     0.018   0.1% |
 RMM-DIIS:                           4.372     0.848   5.7% |-|
  Calculate residuals:               0.603     0.603   4.1% |-|
  DIIS step:                         1.971     0.036   0.2% |
   Calculate residuals:              1.573     1.573  10.6% |---|
   Construct matrix:                 0.049     0.049   0.3% |
   Linear solve:                     0.017     0.017   0.1% |
   Update trial vectors:             0.056     0.056   0.4% |
   precondition:                     0.240     0.240   1.6% ||
  Find lambda:                       0.037     0.037   0.2% |
  Update psi:                        0.018     0.018   0.1% |
  precondition:                      0.510     0.510   3.4% ||
  projections:                       0.384     0.384   2.6% ||
 Subspace diag:                      0.883     0.003   0.0% |
  Band Layouts:                      0.005     0.001   0.0% |
   Diagonalize:                      0.004     0.004   0.0% |
   Distribute results:               0.000     0.000   0.0% |
  calc_h_matrix:                     0.839     0.839   5.7% |-|
  rotate_psi:                        0.037     0.037   0.2% |
Set symmetry:                        0.125     0.125   0.8% |
Other:                               0.696     0.696   4.7% |-|
-----------------------------------------------------------
Total:                                        14.827 100.0%

Memory usage: 155.57 MiB
Date: Tue Feb  6 11:25:14 2018
