
  ___ ___ ___ _ _ _  
 |   |   |_  | | | | 
 | | | | | . | | | | 
 |__ |  _|___|_____|  1.3.0
 |___|_|             

User:   edenborg@hebbe14-7
Date:   Tue Feb  6 11:34:06 2018
Arch:   x86_64
Pid:    4521
Python: 2.7.14
gpaw:   /apps/Hebbe/software/MPI/intel/2017.4.196-GCC-6.4.0-2.28/impi/2017.3.196/GPAW/1.3.0-Python-2.7.14/lib/python2.7/site-packages/gpaw
_gpaw:  /apps/Hebbe/software/MPI/intel/2017.4.196-GCC-6.4.0-2.28/impi/2017.3.196/GPAW/1.3.0-Python-2.7.14/bin/
       gpaw-python
ase:    /c3se/users/edenborg/Hebbe/ase/ase (version 3.15.1b1)
numpy:  /apps/Hebbe/software/MPI/intel/2017.4.196-GCC-6.4.0-2.28/impi/2017.3.196/Python/2.7.14/lib/python2.7/site-packages/numpy-1.13.1-py2.7-linux-x86_64.egg/numpy (version 1.13.1)
scipy:  /apps/Hebbe/software/MPI/intel/2017.4.196-GCC-6.4.0-2.28/impi/2017.3.196/Python/2.7.14/lib/python2.7/site-packages/scipy-0.19.1-py2.7-linux-x86_64.egg/scipy (version 0.19.1)
units:  Angstrom and eV
cores:  12

Input parameters:
  basis: dzp
  eigensolver: rmm-diis
  kpts: [16 16  1]
  mode: {ecut: 650.0,
         name: pw}
  xc: PBE

System changes: positions, numbers, cell, pbc, initial_charges, initial_magmoms 

Initialize ...

Al-setup:
  name: Aluminium
  id: 0292cae29f5d6237e50f6abdd43a7bdd
  Z: 13
  valence: 3
  core: 10
  charge: 0.0
  file: /c3se/apps/Glenn/gpaw/gpaw-setups-0.9.11271/Al.PBE.gz
  cutoffs: 1.08(comp), 1.91(filt), 2.36(core), lmax=2
  valence states:
                energy  radius
    3s(2.00)    -7.753   1.085
    3p(1.00)    -2.712   1.085
    *s          19.459   1.085
    *p          24.499   1.085
    *d           0.000   1.085

  LCAO basis set for Al:
    Name: dzp
    File: /c3se/apps/Glenn/gpaw/gpaw-setups-0.9.11271/Al.dzp.basis.gz
    Number of radial functions: 5
    Number of spherical harmonics: 13
      l=0, rc=7.8750 Bohr: 3s-sz confined orbital
      l=1, rc=10.4219 Bohr: 3p-sz confined orbital
      l=0, rc=4.6094 Bohr: 3s-dz split-valence wave
      l=1, rc=6.2812 Bohr: 3p-dz split-valence wave
      l=2, rc=10.4219 Bohr: d-type Gaussian polarization

Reference energy: -85844.502444

Spin-paired calculation

Occupation numbers:
  Fermi-Dirac: width=0.1000 eV

Convergence criteria:
  Maximum total energy change: 0.0005 eV / electron
  Maximum integral of absolute density change: 0.0001 electrons
  Maximum integral of absolute eigenstate change: 4e-08 eV^2
  Maximum number of iterations: 333

Symmetries present (total): 6

  ( 1  0  0)  ( 1 -1  0)  ( 0  1  0)  ( 0 -1  0)  (-1  1  0)  (-1  0  0)
  ( 0  1  0)  ( 0 -1  0)  ( 1  0  0)  ( 1 -1  0)  (-1  0  0)  (-1  1  0)
  ( 0  0  1)  ( 0  0  1)  ( 0  0  1)  ( 0  0  1)  ( 0  0  1)  ( 0  0  1)
Note: your k-points are not as symmetric as your crystal!

256 k-points: 16 x 16 x 1 Monkhorst-Pack grid
72 k-points in the irreducible part of the Brillouin zone
       k-points in crystal coordinates                weights
   0:     0.03125000   -0.03125000    0.00000000          2/256
   1:     0.03125000    0.03125000    0.00000000          2/256
   2:     0.09375000   -0.09375000    0.00000000          2/256
   3:     0.09375000   -0.03125000    0.00000000          4/256
   4:     0.09375000    0.03125000    0.00000000          4/256
   5:     0.09375000    0.09375000    0.00000000          2/256
   6:     0.15625000   -0.15625000    0.00000000          2/256
   7:     0.15625000   -0.09375000    0.00000000          4/256
   8:     0.15625000   -0.03125000    0.00000000          4/256
   9:     0.15625000    0.03125000    0.00000000          4/256
          ...
  71:     0.46875000    0.46875000    0.00000000          2/256

Wave functions: Plane wave expansion
  Cutoff energy: 650.000 eV
  Number of coefficients (min, max): 11319, 11560
  Using FFTW library
  Eigensolver: None  MatrixOperator buffer_size: default value or 
                              see value of nblock in input file
Diagonalizer layout: Serial LAPACKOrthonormalizer layout: Serial LAPACK 

RMM-DIIS eigensolver
       keep_htpsit: True
       Block size: 10
       DIIS iterations: 3
       Threshold for DIIS: 1.0e-16
       Limit lambda: False
       use_rayleigh: False
       trial_step: 0.1 

Densities:
  Coarse grid: 15*15*256 grid
  Fine grid: 30*30*512 grid
  Total Charge: 0.000000 

Density mixing:
  Method: separate
  Backend: pulay
  Linear mixing parameter: 0.05
  Mixing with 5 old densities
  Damping of long wave oscillations: 50 

Hamiltonian:
  XC and Coulomb potentials evaluated on a 30*30*512 grid
  Using the PBE Exchange-Correlation functional
 

Memory estimate:
  Process memory now: 319.39 MiB
  Calculator: 117.39 MiB
    Density: 24.39 MiB
      Arrays: 11.43 MiB
      Localized functions: 8.57 MiB
      Mixer: 4.39 MiB
    Hamiltonian: 7.65 MiB
      Arrays: 7.47 MiB
      XC: 0.00 MiB
      Poisson: 0.00 MiB
      vbar: 0.18 MiB
    Wavefunctions: 85.35 MiB
      Arrays psit_nG: 55.03 MiB
      Eigensolver: 10.06 MiB
      Projections: 0.80 MiB
      Projectors: 7.27 MiB
      Overlap op: 9.21 MiB
      PW-descriptor: 2.98 MiB

Total number of cores used: 12
Parallelization over k-points: 12

Number of atoms: 13
Number of atomic orbitals: 169
Number of bands in calculation: 52
Bands to converge: occupied states only
Number of valence electrons: 39

... initialized

Initializing position-dependent things.

Density initialized from atomic densities
Creating initial wave functions:
  52 bands from LCAO basis set

                    
                    
                    
                    
       Al           
                    
        Al          
                    
                    
                    
           Al       
                    
                    
       Al           
                    
        Al          
                    
                    
           Al       
                    
                    
       Al           
                    
        Al          
                    
                    
                    
           Al       
                    
                    
       Al           
                    
        Al          
                    
                    
           Al       
                    
                    
                    
       Al           
                    
                    
                    

Positions:
   0 Al     0.000000    0.000000    7.500000
   1 Al     1.429770    0.825478    9.834804
   2 Al     0.000000    1.650956   12.169609
   3 Al     0.000000    0.000000   14.504413
   4 Al     1.429770    0.825478   16.839218
   5 Al     0.000000    1.650956   19.174022
   6 Al     0.000000    0.000000   21.508827
   7 Al     1.429770    0.825478   23.843631
   8 Al     0.000000    1.650956   26.178436
   9 Al     0.000000    0.000000   28.513240
  10 Al     1.429770    0.825478   30.848045
  11 Al     0.000000    1.650956   33.182849
  12 Al     0.000000    0.000000   35.517654

Unit cell:
           periodic     x           y           z      points  spacing
  1. axis:    yes    2.859540    0.000000    0.000000    15     0.1651
  2. axis:    yes    1.429770    2.476434    0.000000    15     0.1651
  3. axis:    no     0.000000    0.000000   43.017654   256     0.1680

  Lengths:   2.859540   2.859540  43.017654
  Angles:   90.000000  90.000000  60.000000

Effective grid spacing dv^(1/3) = 0.1742

                     log10-error:    total        iterations:
           time      wfs    density  energy       fermi  poisson
iter:   1  11:34:37  +1.29   +inf   -46.997869    2             
iter:   2  11:34:47  -2.26   +inf   -48.053083    3             
iter:   3  11:34:56  -3.37   +inf   -48.058209    2             
iter:   4  11:35:07  -3.31  -0.90   -48.581033    29            
iter:   5  11:35:17  -3.47  -0.91   -48.589397    34            
iter:   6  11:35:28  -2.93  -0.90   -47.965630    34            
iter:   7  11:35:39  -2.22  -1.03   -48.010360    3             
iter:   8  11:35:50  -2.65  -1.29   -47.963569    3             
iter:   9  11:36:00  -3.58  -1.58   -47.901247    2             
iter:  10  11:36:11  -3.45  -1.79   -47.888606    3             
iter:  11  11:36:22  -4.13  -1.92   -47.868109    3             
iter:  12  11:36:33  -4.02  -2.12   -47.864321    3             
iter:  13  11:36:43  -4.87  -2.27   -47.869046    2             
iter:  14  11:36:54  -5.50  -2.15   -47.872127    2             
iter:  15  11:37:05  -5.20  -2.08   -47.861704    2             
iter:  16  11:37:16  -5.40  -2.57   -47.862249    3             
iter:  17  11:37:26  -5.46  -2.51   -47.862399    3             
iter:  18  11:37:37  -5.25  -2.54   -47.861531    2             
iter:  19  11:37:48  -5.85  -2.85   -47.861727    2             
iter:  20  11:37:59  -6.45  -2.81   -47.864191    2             
iter:  21  11:38:10  -6.34  -2.37   -47.861485    2             
iter:  22  11:38:21  -5.79  -3.02   -47.861503    2             
iter:  23  11:38:31  -6.74  -3.07   -47.861637    2             
iter:  24  11:38:42  -6.23  -2.94   -47.861471    2             
iter:  25  11:38:53  -6.63  -3.25   -47.861480    2             
iter:  26  11:39:04  -7.02  -3.39   -47.861980    2             
iter:  27  11:39:14  -7.20  -2.74   -47.861481    2             
iter:  28  11:39:25  -6.92  -3.32   -47.861460    1             
iter:  29  11:39:35  -7.73  -3.53   -47.861506    2             
iter:  30  11:39:46  -7.56  -3.32   -47.861457    2             
iter:  31  11:39:57  -7.53  -3.71   -47.861457    2             
iter:  32  11:40:08  -7.91  -3.85   -47.861476    2             
iter:  33  11:40:18  -8.63  -3.44   -47.861456    2             
iter:  34  11:40:29  -8.03  -3.82   -47.861454    2             
iter:  35  11:40:40  -8.35  -4.00   -47.861465    2             
iter:  36  11:40:50  -8.71  -3.74   -47.861454    2             
iter:  37  11:41:01  -8.55  -4.03   -47.861454    2             

Converged after 37 iterations.

Dipole moment: (-0.000000, -0.000000, -0.000037) |e|*Ang

Energy contributions relative to reference atoms: (reference = -85844.502444)

Kinetic:        +43.951539
Potential:      -20.815469
External:        +0.000000
XC:             -70.824311
Entropy (-ST):   -0.174863
Local:           -0.085783
--------------------------
Free energy:    -47.948886
Extrapolated:   -47.861454

Fermi level: 3.87000

Warning: Showing only first 2 kpts
 Kpt  Band  Eigenvalues  Occupancy
  0    17      4.04012    0.00241
  0    18      5.14342    0.00000
  0    19      6.20475    0.00000
  0    20      7.08784    0.00000

  1    17      3.99721    0.00342
  1    18      5.10113    0.00000
  1    19      6.16284    0.00000
  1    20      7.04475    0.00000


Timing:                              incl.     excl.
-----------------------------------------------------------
Hamiltonian:                         0.545     0.001   0.0% |
 Atomic:                             0.097     0.050   0.0% |
  XC Correction:                     0.047     0.047   0.0% |
 Calculate atomic Hamiltonians:      0.180     0.180   0.0% |
 Communicate:                        0.000     0.000   0.0% |
 Initialize Hamiltonian:             0.000     0.000   0.0% |
 Poisson:                            0.002     0.002   0.0% |
 XC 3D grid:                         0.263     0.263   0.1% |
LCAO initialization:                18.014     0.073   0.0% |
 LCAO eigensolver:                  10.586     0.001   0.0% |
  Calculate projections:             0.003     0.003   0.0% |
  DenseAtomicCorrection:             0.010     0.010   0.0% |
  Distribute overlap matrix:         0.001     0.001   0.0% |
  Orbital Layouts:                   0.057     0.057   0.0% |
  Potential matrix:                 10.456    10.456   2.5% ||
  Sum over cells:                    0.057     0.057   0.0% |
 LCAO to grid:                       3.772     3.772   0.9% |
 Set positions (LCAO WFS):           3.583     0.001   0.0% |
  Basic WFS set positions:           0.002     0.002   0.0% |
  Basis functions set positions:     0.000     0.000   0.0% |
  TCI: Calculate S, T, P:            3.580     3.580   0.9% |
PWDescriptor:                        0.015     0.015   0.0% |
SCF-cycle:                         394.754    33.352   8.0% |--|
 Density:                           32.095     0.001   0.0% |
  Atomic density matrices:           0.150     0.150   0.0% |
  Mix:                               9.703     9.703   2.3% ||
  Multipole moments:                 0.012     0.012   0.0% |
  Pseudo density:                   22.229    21.558   5.2% |-|
   Symmetrize density:               0.671     0.671   0.2% |
 Hamiltonian:                       15.271     0.041   0.0% |
  Atomic:                            3.245     1.635   0.4% |
   XC Correction:                    1.610     1.610   0.4% |
  Calculate atomic Hamiltonians:     3.377     3.377   0.8% |
  Communicate:                       0.007     0.007   0.0% |
  Poisson:                           0.051     0.051   0.0% |
  XC 3D grid:                        8.550     8.550   2.1% ||
 Orthonormalize:                    13.983     0.010   0.0% |
  Band Layouts:                      0.023     0.002   0.0% |
   Inverse Cholesky:                 0.021     0.021   0.0% |
  calc_s_matrix:                     1.237     1.237   0.3% |
  projections:                      11.031    11.031   2.7% ||
  rotate_psi:                        1.683     1.683   0.4% |
 RMM-DIIS:                         268.547    27.068   6.5% |--|
  Calculate residuals:              53.998    53.998  13.0% |----|
  DIIS step:                       125.251     1.712   0.4% |
   Calculate residuals:            110.774   110.774  26.7% |----------|
   Construct matrix:                 1.607     1.607   0.4% |
   Linear solve:                     0.327     0.327   0.1% |
   Update trial vectors:             2.151     2.151   0.5% |
   precondition:                     8.681     8.681   2.1% ||
  Find lambda:                       1.224     1.224   0.3% |
  Update psi:                        0.851     0.851   0.2% |
  precondition:                     18.214    18.214   4.4% |-|
  projections:                      41.941    41.941  10.1% |---|
 Subspace diag:                     31.505     0.015   0.0% |
  Band Layouts:                      0.128     0.003   0.0% |
   Diagonalize:                      0.121     0.121   0.0% |
   Distribute results:               0.003     0.003   0.0% |
  calc_h_matrix:                    27.605    27.605   6.7% |--|
  rotate_psi:                        3.758     3.758   0.9% |
Set symmetry:                        0.108     0.108   0.0% |
Other:                               1.342     1.342   0.3% |
-----------------------------------------------------------
Total:                                       414.777 100.0%

Memory usage: 384.04 MiB
Date: Tue Feb  6 11:41:01 2018
