
  ___ ___ ___ _ _ _  
 |   |   |_  | | | | 
 | | | | | . | | | | 
 |__ |  _|___|_____|  1.3.0
 |___|_|             

User:   fantm@hebbe03-8
Date:   Tue Feb  6 11:25:42 2018
Arch:   x86_64
Pid:    12649
Python: 2.7.14
gpaw:   /apps/Hebbe/software/MPI/intel/2017.4.196-GCC-6.4.0-2.28/impi/2017.3.196/GPAW/1.3.0-Python-2.7.14/lib/python2.7/site-packages/gpaw
_gpaw:  /apps/Hebbe/software/MPI/intel/2017.4.196-GCC-6.4.0-2.28/impi/2017.3.196/GPAW/1.3.0-Python-2.7.14/bin/
       gpaw-python
ase:    /apps/Hebbe/software/MPI/intel/2017.4.196-GCC-6.4.0-2.28/impi/2017.3.196/ASE/3.15.0-Python-2.7.14/lib/python2.7/site-packages/ase-3.15.0-py2.7.egg/ase (version 3.15.0)
numpy:  /apps/Hebbe/software/MPI/intel/2017.4.196-GCC-6.4.0-2.28/impi/2017.3.196/Python/2.7.14/lib/python2.7/site-packages/numpy-1.13.1-py2.7-linux-x86_64.egg/numpy (version 1.13.1)
scipy:  /apps/Hebbe/software/MPI/intel/2017.4.196-GCC-6.4.0-2.28/impi/2017.3.196/Python/2.7.14/lib/python2.7/site-packages/scipy-0.19.1-py2.7-linux-x86_64.egg/scipy (version 0.19.1)
units:  Angstrom and eV
cores:  12

Input parameters:
  basis: dzp
  eigensolver: rmm-diis
  kpts: [16 16  1]
  mode: {ecut: 650.0,
         name: pw}
  xc: PBE

System changes: positions, numbers, cell, pbc, initial_charges, initial_magmoms 

Initialize ...

Al-setup:
  name: Aluminium
  id: 0292cae29f5d6237e50f6abdd43a7bdd
  Z: 13
  valence: 3
  core: 10
  charge: 0.0
  file: /c3se/apps/Glenn/gpaw/gpaw-setups-0.9.11271/Al.PBE.gz
  cutoffs: 1.08(comp), 1.91(filt), 2.36(core), lmax=2
  valence states:
                energy  radius
    3s(2.00)    -7.753   1.085
    3p(1.00)    -2.712   1.085
    *s          19.459   1.085
    *p          24.499   1.085
    *d           0.000   1.085

  LCAO basis set for Al:
    Name: dzp
    File: /c3se/apps/Glenn/gpaw/gpaw-setups-0.9.11271/Al.dzp.basis.gz
    Number of radial functions: 5
    Number of spherical harmonics: 13
      l=0, rc=7.8750 Bohr: 3s-sz confined orbital
      l=1, rc=10.4219 Bohr: 3p-sz confined orbital
      l=0, rc=4.6094 Bohr: 3s-dz split-valence wave
      l=1, rc=6.2812 Bohr: 3p-dz split-valence wave
      l=2, rc=10.4219 Bohr: d-type Gaussian polarization

Reference energy: -46223.962854

Spin-paired calculation

Occupation numbers:
  Fermi-Dirac: width=0.1000 eV

Convergence criteria:
  Maximum total energy change: 0.0005 eV / electron
  Maximum integral of absolute density change: 0.0001 electrons
  Maximum integral of absolute eigenstate change: 4e-08 eV^2
  Maximum number of iterations: 333

Symmetries present (total): 8

  ( 1  0  0)  ( 1  0  0)  ( 0  1  0)  ( 0  1  0)  ( 0 -1  0)  ( 0 -1  0)
  ( 0  1  0)  ( 0 -1  0)  ( 1  0  0)  (-1  0  0)  ( 1  0  0)  (-1  0  0)
  ( 0  0  1)  ( 0  0  1)  ( 0  0  1)  ( 0  0  1)  ( 0  0  1)  ( 0  0  1)

  (-1  0  0)  (-1  0  0)
  ( 0  1  0)  ( 0 -1  0)
  ( 0  0  1)  ( 0  0  1)

256 k-points: 16 x 16 x 1 Monkhorst-Pack grid
36 k-points in the irreducible part of the Brillouin zone
       k-points in crystal coordinates                weights
   0:     0.03125000    0.03125000    0.00000000          4/256
   1:     0.09375000    0.03125000    0.00000000          8/256
   2:     0.09375000    0.09375000    0.00000000          4/256
   3:     0.15625000    0.03125000    0.00000000          8/256
   4:     0.15625000    0.09375000    0.00000000          8/256
   5:     0.15625000    0.15625000    0.00000000          4/256
   6:     0.21875000    0.03125000    0.00000000          8/256
   7:     0.21875000    0.09375000    0.00000000          8/256
   8:     0.21875000    0.15625000    0.00000000          8/256
   9:     0.21875000    0.21875000    0.00000000          4/256
          ...
  35:     0.46875000    0.46875000    0.00000000          4/256

Wave functions: Plane wave expansion
  Cutoff energy: 650.000 eV
  Number of coefficients (min, max): 8290, 8432
  Using FFTW library
  Eigensolver: None  MatrixOperator buffer_size: default value or 
                              see value of nblock in input file
Diagonalizer layout: Serial LAPACKOrthonormalizer layout: Serial LAPACK 

RMM-DIIS eigensolver
       keep_htpsit: True
       Block size: 10
       DIIS iterations: 3
       Threshold for DIIS: 1.0e-16
       Limit lambda: False
       use_rayleigh: False
       trial_step: 0.1 

Densities:
  Coarse grid: 18*18*160 grid
  Fine grid: 36*36*320 grid
  Total Charge: 0.000000 

Density mixing:
  Method: separate
  Backend: pulay
  Linear mixing parameter: 0.05
  Mixing with 5 old densities
  Damping of long wave oscillations: 50 

Hamiltonian:
  XC and Coulomb potentials evaluated on a 36*36*320 grid
  Using the PBE Exchange-Correlation functional
 

Memory estimate:
  Process memory now: 201.96 MiB
  Calculator: 53.75 MiB
    Density: 23.14 MiB
      Arrays: 10.28 MiB
      Localized functions: 8.90 MiB
      Mixer: 3.96 MiB
    Hamiltonian: 6.91 MiB
      Arrays: 6.72 MiB
      XC: 0.00 MiB
      Poisson: 0.00 MiB
      vbar: 0.18 MiB
    Wavefunctions: 23.71 MiB
      Arrays psit_nG: 10.81 MiB
      Eigensolver: 4.25 MiB
      Projections: 0.12 MiB
      Projectors: 2.66 MiB
      Overlap op: 3.61 MiB
      PW-descriptor: 2.26 MiB

Total number of cores used: 12
Parallelization over k-points: 12

Number of atoms: 7
Number of atomic orbitals: 91
Number of bands in calculation: 28
Bands to converge: occupied states only
Number of valence electrons: 21

... initialized

Initializing position-dependent things.

Density initialized from atomic densities
Creating initial wave functions:
  28 bands from LCAO basis set

   .------.  
  /|      |  
 * |      |  
 | |      |  
 | |      |  
 | |      |  
 | |      |  
 | |      |  
 | |      |  
 | |      |  
 | |      |  
 Al|      |  
 | |      |  
 | | Al   |  
 | |      |  
 | |      |  
 Al|      |  
 | | Al   |  
 | |      |  
 | |      |  
 | |      |  
 Al|      |  
 | | Al   |  
 | |      |  
 | |      |  
 | |      |  
 Al|      |  
 | |      |  
 | |      |  
 | |      |  
 | |      |  
 | |      |  
 | |      |  
 | .------.  
 |/      /   
 *------*    

Positions:
   0 Al     0.000000    0.000000    7.500000
   1 Al     1.429770    1.429770    9.522000
   2 Al     0.000000    0.000000   11.544000
   3 Al     1.429770    1.429770   13.566000
   4 Al     0.000000    0.000000   15.588000
   5 Al     1.429770    1.429770   17.610000
   6 Al     0.000000    0.000000   19.632000

Unit cell:
           periodic     x           y           z      points  spacing
  1. axis:    yes    2.859540    0.000000    0.000000    18     0.1589
  2. axis:    yes    0.000000    2.859540    0.000000    18     0.1589
  3. axis:    no     0.000000    0.000000   27.132000   160     0.1696

  Lengths:   2.859540   2.859540  27.132000
  Angles:   90.000000  90.000000  90.000000

Effective grid spacing dv^(1/3) = 0.1624

                     log10-error:    total        iterations:
           time      wfs    density  energy       fermi  poisson
iter:   1  11:25:54  +1.26   +inf   -24.843489    3             
iter:   2  11:25:55  -2.16   +inf   -25.408552    3             
iter:   3  11:25:57  -3.32   +inf   -25.412000    2             
iter:   4  11:25:59  -3.31  -0.88   -25.287919    4             
iter:   5  11:26:01  -3.36  -0.94   -25.255132    2             
iter:   6  11:26:03  -1.96  -0.97   -25.304872    32            
iter:   7  11:26:05  -2.21  -1.23   -25.231645    4             
iter:   8  11:26:07  -3.32  -1.67   -25.231931    3             
iter:   9  11:26:09  -2.91  -1.80   -25.215741    4             
iter:  10  11:26:11  -4.56  -2.38   -25.217373    2             
iter:  11  11:26:14  -4.10  -2.42   -25.216900    3             
iter:  12  11:26:16  -5.25  -2.86   -25.216958    2             
iter:  13  11:26:18  -6.05  -2.94   -25.216973    2             
iter:  14  11:26:20  -6.10  -2.98   -25.216973    2             
iter:  15  11:26:22  -5.66  -3.08   -25.216968    2             
iter:  16  11:26:24  -6.68  -3.27   -25.216967    2             
iter:  17  11:26:26  -6.81  -3.35   -25.216969    2             
iter:  18  11:26:28  -7.71  -3.40   -25.216968    2             
iter:  19  11:26:30  -6.63  -3.47   -25.216961    2             
iter:  20  11:26:32  -7.10  -3.70   -25.216967    2             
iter:  21  11:26:34  -7.96  -3.83   -25.216965    2             
iter:  22  11:26:37  -7.72  -3.91   -25.216968    2             
iter:  23  11:26:39  -8.39  -4.03   -25.216968    2             

Converged after 23 iterations.

Dipole moment: (-0.000000, -0.000000, -0.000022) |e|*Ang

Energy contributions relative to reference atoms: (reference = -46223.962854)

Kinetic:        +21.578706
Potential:      -10.368431
External:        +0.000000
XC:             -36.343657
Entropy (-ST):   -0.084273
Local:           -0.041449
--------------------------
Free energy:    -25.259104
Extrapolated:   -25.216968

Fermi level: 1.74825

Warning: Showing only first 2 kpts
 Kpt  Band  Eigenvalues  Occupancy
  0     8      2.09043    0.00099
  0     9      4.00063    0.00000
  0    10      5.29050    0.00000
  0    11      6.17744    0.00000

  1     8      2.21933    0.00056
  1     9      4.12117    0.00000
  1    10      4.82336    0.00000
  1    11      5.27715    0.00000


Timing:                              incl.     excl.
-----------------------------------------------------------
Hamiltonian:                         0.414     0.002   0.0% |
 Atomic:                             0.053     0.053   0.1% |
  XC Correction:                     0.000     0.000   0.0% |
 Calculate atomic Hamiltonians:      0.123     0.123   0.2% |
 Communicate:                        0.000     0.000   0.0% |
 Initialize Hamiltonian:             0.000     0.000   0.0% |
 Poisson:                            0.002     0.002   0.0% |
 XC 3D grid:                         0.232     0.232   0.4% |
LCAO initialization:                 8.430     0.073   0.1% |
 LCAO eigensolver:                   6.112     0.000   0.0% |
  Calculate projections:             0.000     0.000   0.0% |
  DenseAtomicCorrection:             0.001     0.001   0.0% |
  Distribute overlap matrix:         0.000     0.000   0.0% |
  Orbital Layouts:                   0.007     0.007   0.0% |
  Potential matrix:                  6.096     6.096  10.7% |---|
  Sum over cells:                    0.007     0.007   0.0% |
 LCAO to grid:                       0.737     0.737   1.3% ||
 Set positions (LCAO WFS):           1.507     0.000   0.0% |
  Basic WFS set positions:           0.001     0.001   0.0% |
  Basis functions set positions:     0.000     0.000   0.0% |
  TCI: Calculate S, T, P:            1.505     1.505   2.7% ||
PWDescriptor:                        0.008     0.008   0.0% |
SCF-cycle:                          46.779     3.527   6.2% |-|
 Density:                            7.158     0.000   0.0% |
  Atomic density matrices:           0.049     0.049   0.1% |
  Mix:                               3.368     3.368   5.9% |-|
  Multipole moments:                 0.005     0.005   0.0% |
  Pseudo density:                    3.735     3.266   5.8% |-|
   Symmetrize density:               0.469     0.469   0.8% |
 Hamiltonian:                        6.937     0.025   0.0% |
  Atomic:                            1.061     1.061   1.9% ||
   XC Correction:                    0.000     0.000   0.0% |
  Calculate atomic Hamiltonians:     1.195     1.195   2.1% ||
  Communicate:                       0.003     0.003   0.0% |
  Poisson:                           0.031     0.031   0.1% |
  XC 3D grid:                        4.621     4.621   8.1% |--|
 Orthonormalize:                     1.387     0.003   0.0% |
  Band Layouts:                      0.004     0.000   0.0% |
   Inverse Cholesky:                 0.003     0.003   0.0% |
  calc_s_matrix:                     0.104     0.104   0.2% |
  projections:                       1.128     1.128   2.0% ||
  rotate_psi:                        0.149     0.149   0.3% |
 RMM-DIIS:                          23.572     3.963   7.0% |--|
  Calculate residuals:               3.651     3.651   6.4% |--|
  DIIS step:                        10.751     0.205   0.4% |
   Calculate residuals:              8.922     8.922  15.7% |-----|
   Construct matrix:                 0.217     0.217   0.4% |
   Linear solve:                     0.055     0.055   0.1% |
   Update trial vectors:             0.271     0.271   0.5% |
   precondition:                     1.082     1.082   1.9% ||
  Find lambda:                       0.151     0.151   0.3% |
  Update psi:                        0.094     0.094   0.2% |
  precondition:                      2.291     2.291   4.0% |-|
  projections:                       2.670     2.670   4.7% |-|
 Subspace diag:                      4.199     0.004   0.0% |
  Band Layouts:                      0.014     0.001   0.0% |
   Diagonalize:                      0.012     0.012   0.0% |
   Distribute results:               0.001     0.001   0.0% |
  calc_h_matrix:                     3.921     3.921   6.9% |--|
  rotate_psi:                        0.259     0.259   0.5% |
Set symmetry:                        0.127     0.127   0.2% |
Other:                               0.992     0.992   1.7% ||
-----------------------------------------------------------
Total:                                        56.749 100.0%

Memory usage: 245.10 MiB
Date: Tue Feb  6 11:26:39 2018
