
  ___ ___ ___ _ _ _  
 |   |   |_  | | | | 
 | | | | | . | | | | 
 |__ |  _|___|_____|  1.3.0
 |___|_|             

User:   edenborg@hebbe14-7
Date:   Tue Feb  6 12:19:34 2018
Arch:   x86_64
Pid:    4521
Python: 2.7.14
gpaw:   /apps/Hebbe/software/MPI/intel/2017.4.196-GCC-6.4.0-2.28/impi/2017.3.196/GPAW/1.3.0-Python-2.7.14/lib/python2.7/site-packages/gpaw
_gpaw:  /apps/Hebbe/software/MPI/intel/2017.4.196-GCC-6.4.0-2.28/impi/2017.3.196/GPAW/1.3.0-Python-2.7.14/bin/
       gpaw-python
ase:    /c3se/users/edenborg/Hebbe/ase/ase (version 3.15.1b1)
numpy:  /apps/Hebbe/software/MPI/intel/2017.4.196-GCC-6.4.0-2.28/impi/2017.3.196/Python/2.7.14/lib/python2.7/site-packages/numpy-1.13.1-py2.7-linux-x86_64.egg/numpy (version 1.13.1)
scipy:  /apps/Hebbe/software/MPI/intel/2017.4.196-GCC-6.4.0-2.28/impi/2017.3.196/Python/2.7.14/lib/python2.7/site-packages/scipy-0.19.1-py2.7-linux-x86_64.egg/scipy (version 0.19.1)
units:  Angstrom and eV
cores:  12

Input parameters:
  basis: dzp
  eigensolver: rmm-diis
  kpts: [16 16  1]
  mode: {ecut: 650.0,
         name: pw}
  xc: PBE

System changes: positions, numbers, cell, pbc, initial_charges, initial_magmoms 

Initialize ...

Al-setup:
  name: Aluminium
  id: 0292cae29f5d6237e50f6abdd43a7bdd
  Z: 13
  valence: 3
  core: 10
  charge: 0.0
  file: /c3se/apps/Glenn/gpaw/gpaw-setups-0.9.11271/Al.PBE.gz
  cutoffs: 1.08(comp), 1.91(filt), 2.36(core), lmax=2
  valence states:
                energy  radius
    3s(2.00)    -7.753   1.085
    3p(1.00)    -2.712   1.085
    *s          19.459   1.085
    *p          24.499   1.085
    *d           0.000   1.085

  LCAO basis set for Al:
    Name: dzp
    File: /c3se/apps/Glenn/gpaw/gpaw-setups-0.9.11271/Al.dzp.basis.gz
    Number of radial functions: 5
    Number of spherical harmonics: 13
      l=0, rc=7.8750 Bohr: 3s-sz confined orbital
      l=1, rc=10.4219 Bohr: 3p-sz confined orbital
      l=0, rc=4.6094 Bohr: 3s-dz split-valence wave
      l=1, rc=6.2812 Bohr: 3p-dz split-valence wave
      l=2, rc=10.4219 Bohr: d-type Gaussian polarization

Reference energy: -125465.042033

Spin-paired calculation

Occupation numbers:
  Fermi-Dirac: width=0.1000 eV

Convergence criteria:
  Maximum total energy change: 0.0005 eV / electron
  Maximum integral of absolute density change: 0.0001 electrons
  Maximum integral of absolute eigenstate change: 4e-08 eV^2
  Maximum number of iterations: 333

Symmetries present (total): 6

  ( 1  0  0)  ( 1 -1  0)  ( 0  1  0)  ( 0 -1  0)  (-1  1  0)  (-1  0  0)
  ( 0  1  0)  ( 0 -1  0)  ( 1  0  0)  ( 1 -1  0)  (-1  0  0)  (-1  1  0)
  ( 0  0  1)  ( 0  0  1)  ( 0  0  1)  ( 0  0  1)  ( 0  0  1)  ( 0  0  1)
Note: your k-points are not as symmetric as your crystal!

256 k-points: 16 x 16 x 1 Monkhorst-Pack grid
72 k-points in the irreducible part of the Brillouin zone
       k-points in crystal coordinates                weights
   0:     0.03125000   -0.03125000    0.00000000          2/256
   1:     0.03125000    0.03125000    0.00000000          2/256
   2:     0.09375000   -0.09375000    0.00000000          2/256
   3:     0.09375000   -0.03125000    0.00000000          4/256
   4:     0.09375000    0.03125000    0.00000000          4/256
   5:     0.09375000    0.09375000    0.00000000          2/256
   6:     0.15625000   -0.15625000    0.00000000          2/256
   7:     0.15625000   -0.09375000    0.00000000          4/256
   8:     0.15625000   -0.03125000    0.00000000          4/256
   9:     0.15625000    0.03125000    0.00000000          4/256
          ...
  71:     0.46875000    0.46875000    0.00000000          2/256

Wave functions: Plane wave expansion
  Cutoff energy: 650.000 eV
  Number of coefficients (min, max): 15019, 15326
  Using FFTW library
  Eigensolver: None  MatrixOperator buffer_size: default value or 
                              see value of nblock in input file
Diagonalizer layout: Serial LAPACKOrthonormalizer layout: Serial LAPACK 

RMM-DIIS eigensolver
       keep_htpsit: True
       Block size: 10
       DIIS iterations: 3
       Threshold for DIIS: 1.0e-16
       Limit lambda: False
       use_rayleigh: False
       trial_step: 0.1 

Densities:
  Coarse grid: 15*15*336 grid
  Fine grid: 30*30*672 grid
  Total Charge: 0.000000 

Density mixing:
  Method: separate
  Backend: pulay
  Linear mixing parameter: 0.05
  Mixing with 5 old densities
  Damping of long wave oscillations: 50 

Hamiltonian:
  XC and Coulomb potentials evaluated on a 30*30*672 grid
  Using the PBE Exchange-Correlation functional
 

Memory estimate:
  Process memory now: 503.25 MiB
  Calculator: 200.88 MiB
    Density: 32.13 MiB
      Arrays: 15.00 MiB
      Localized functions: 11.36 MiB
      Mixer: 5.77 MiB
    Hamiltonian: 10.04 MiB
      Arrays: 9.81 MiB
      XC: 0.00 MiB
      Poisson: 0.00 MiB
      vbar: 0.23 MiB
    Wavefunctions: 158.71 MiB
      Arrays psit_nG: 106.64 MiB
      Eigensolver: 18.94 MiB
      Projections: 1.72 MiB
      Projectors: 9.64 MiB
      Overlap op: 17.86 MiB
      PW-descriptor: 3.92 MiB

Total number of cores used: 12
Parallelization over k-points: 12

Number of atoms: 19
Number of atomic orbitals: 247
Number of bands in calculation: 76
Bands to converge: occupied states only
Number of valence electrons: 57

... initialized

Initializing position-dependent things.

Density initialized from atomic densities
Creating initial wave functions:
  76 bands from LCAO basis set

                    
                    
                    
                    
       Al           
                    
        Al          
                    
                    
                    
           Al       
                    
                    
       Al           
                    
        Al          
                    
                    
           Al       
                    
                    
                    
       Al           
                    
        Al          
                    
                    
           Al       
                    
                    
       Al           
                    
        Al          
                    
                    
                    
           Al       
                    
                    
       Al           
                    
        Al          
                    
                    
           Al       
                    
                    
                    
       Al           
                    
        Al          
                    
                    
           Al       
                    
                    
       Al           
                    
                    
                    
                    

Positions:
   0 Al     0.000000    0.000000    7.500000
   1 Al     1.429770    0.825478    9.834804
   2 Al     0.000000    1.650956   12.169609
   3 Al     0.000000    0.000000   14.504413
   4 Al     1.429770    0.825478   16.839218
   5 Al     0.000000    1.650956   19.174022
   6 Al     0.000000    0.000000   21.508827
   7 Al     1.429770    0.825478   23.843631
   8 Al     0.000000    1.650956   26.178436
   9 Al     0.000000    0.000000   28.513240
  10 Al     1.429770    0.825478   30.848045
  11 Al     0.000000    1.650956   33.182849
  12 Al     0.000000    0.000000   35.517654
  13 Al     1.429770    0.825478   37.852458
  14 Al     0.000000    1.650956   40.187263
  15 Al     0.000000    0.000000   42.522067
  16 Al     1.429770    0.825478   44.856872
  17 Al     0.000000    1.650956   47.191676
  18 Al     0.000000    0.000000   49.526481

Unit cell:
           periodic     x           y           z      points  spacing
  1. axis:    yes    2.859540    0.000000    0.000000    15     0.1651
  2. axis:    yes    1.429770    2.476434    0.000000    15     0.1651
  3. axis:    no     0.000000    0.000000   57.026481   336     0.1697

  Lengths:   2.859540   2.859540  57.026481
  Angles:   90.000000  90.000000  60.000000

Effective grid spacing dv^(1/3) = 0.1748

                     log10-error:    total        iterations:
           time      wfs    density  energy       fermi  poisson
iter:   1  12:20:30  +1.29   +inf   -68.933512    2             
iter:   2  12:20:52  -2.32   +inf   -70.472811    3             
iter:   3  12:21:14  -3.44   +inf   -70.479361    2             
iter:   4  12:21:39  -3.33  -0.91   -72.723471    34            
iter:   5  12:22:03  -3.37  -0.85   -73.948281    30            
iter:   6  12:22:27  -3.22  -0.80   -71.616218    3             
iter:   7  12:22:52  -2.54  -0.91   -70.538682    3             
iter:   8  12:23:16  -2.46  -1.15   -70.533517    3             
iter:   9  12:23:40  -3.29  -1.42   -70.486302    3             
iter:  10  12:24:05  -3.46  -1.57   -70.955192    3             
iter:  11  12:24:29  -4.05  -1.30   -70.548610    3             
iter:  12  12:24:54  -4.11  -1.49   -70.383073    3             
iter:  13  12:25:18  -4.46  -1.68   -70.300167    2             
iter:  14  12:25:42  -4.43  -2.06   -70.391826    2             
iter:  15  12:26:07  -5.18  -1.67   -70.335793    2             
iter:  16  12:26:31  -4.72  -1.82   -70.285863    3             
iter:  17  12:26:55  -4.60  -2.31   -70.310445    3             
iter:  18  12:27:19  -5.68  -1.97   -70.286233    3             
iter:  19  12:27:44  -5.36  -2.29   -70.285905    2             
iter:  20  12:28:08  -5.66  -2.33   -70.283540    2             
iter:  21  12:28:32  -5.17  -2.42   -70.283684    2             
iter:  22  12:28:56  -5.59  -2.47   -70.338685    2             
iter:  23  12:29:21  -5.72  -1.80   -70.283609    2             
iter:  24  12:29:45  -5.77  -2.54   -70.284719    2             
iter:  25  12:30:09  -6.25  -2.47   -70.288197    3             
iter:  26  12:30:34  -6.11  -2.32   -70.282893    2             
iter:  27  12:30:58  -6.51  -2.73   -70.282987    2             
iter:  28  12:31:22  -6.43  -2.74   -70.292802    2             
iter:  29  12:31:46  -6.43  -2.18   -70.285932    2             
iter:  30  12:32:10  -6.51  -2.44   -70.283838    2             
iter:  31  12:32:34  -6.33  -2.65   -70.287106    3             
iter:  32  12:32:58  -6.57  -2.35   -70.282835    3             
iter:  33  12:33:23  -7.09  -2.84   -70.282800    2             
iter:  34  12:33:47  -6.98  -2.88   -70.284768    2             
iter:  35  12:34:11  -6.99  -2.50   -70.283476    2             
iter:  36  12:34:35  -6.69  -2.67   -70.282836    2             
iter:  37  12:35:00  -6.76  -2.88   -70.285607    2             
iter:  38  12:35:24  -6.71  -2.47   -70.282851    2             
iter:  39  12:35:48  -7.06  -2.87   -70.282650    2             
iter:  40  12:36:12  -7.29  -2.96   -70.283770    2             
iter:  41  12:36:37  -7.29  -2.63   -70.282930    2             
iter:  42  12:37:01  -7.41  -2.86   -70.282621    2             
iter:  43  12:37:25  -7.26  -3.06   -70.283242    2             
iter:  44  12:37:49  -7.16  -2.73   -70.282938    2             
iter:  45  12:38:14  -7.35  -2.89   -70.282741    2             
iter:  46  12:38:38  -7.41  -3.04   -70.283522    2             
iter:  47  12:39:02  -7.26  -2.68   -70.282988    2             
iter:  48  12:39:26  -7.66  -2.84   -70.282583    2             
iter:  49  12:39:51  -7.77  -3.15   -70.282813    2             
iter:  50  12:40:15  -7.67  -2.98   -70.282644    2             
iter:  51  12:40:39  -7.69  -3.06   -70.282571    2             
iter:  52  12:41:03  -7.54  -3.16   -70.283174    2             
iter:  53  12:41:27  -7.30  -2.79   -70.283464    2             
iter:  54  12:41:52  -7.63  -2.71   -70.282589    2             
iter:  55  12:42:16  -8.02  -3.21   -70.282627    2             
iter:  56  12:42:40  -8.00  -3.08   -70.282620    2             
iter:  57  12:43:04  -8.32  -3.19   -70.282578    2             
iter:  58  12:43:29  -7.99  -3.29   -70.282700    2             
iter:  59  12:43:53  -7.60  -3.05   -70.283206    2             
iter:  60  12:44:17  -7.70  -2.76   -70.282599    2             
iter:  61  12:44:41  -7.96  -3.24   -70.282787    2             
iter:  62  12:45:05  -7.92  -3.04   -70.282574    2             
iter:  63  12:45:29  -8.35  -3.28   -70.282555    2             
iter:  64  12:45:54  -8.56  -3.38   -70.282599    2             
iter:  65  12:46:18  -8.09  -3.29   -70.282834    2             
iter:  66  12:46:42  -8.07  -2.96   -70.282570    2             
iter:  67  12:47:06  -8.10  -3.34   -70.282622    2             
iter:  68  12:47:31  -7.96  -3.12   -70.282616    2             
iter:  69  12:47:55  -8.18  -3.29   -70.282565    2             
iter:  70  12:48:19  -8.57  -3.43   -70.282573    2             
iter:  71  12:48:44  -8.38  -3.34   -70.282643    2             
iter:  72  12:49:08  -8.44  -3.15   -70.282560    2             
iter:  73  12:49:32  -8.52  -3.47   -70.282613    2             
iter:  74  12:49:57  -8.39  -3.35   -70.282559    2             
iter:  75  12:50:21  -8.37  -3.42   -70.282562    2             
iter:  76  12:50:46  -8.45  -3.47   -70.282618    2             
iter:  77  12:51:10  -8.34  -3.30   -70.282669    2             
iter:  78  12:51:34  -8.48  -3.17   -70.282566    2             
iter:  79  12:51:58  -8.77  -3.51   -70.282549    2             
iter:  80  12:52:23  -8.92  -3.48   -70.282564    2             
iter:  81  12:52:47  -8.79  -3.57   -70.282557    2             
iter:  82  12:53:11  -8.61  -3.58   -70.282572    2             
iter:  83  12:53:35  -8.41  -3.39   -70.282625    2             
iter:  84  12:53:59  -8.47  -3.20   -70.282563    2             
iter:  85  12:54:23  -8.57  -3.54   -70.282606    2             
iter:  86  12:54:48  -8.82  -3.41   -70.282551    2             
iter:  87  12:55:12  -9.24  -3.67   -70.282556    2             
iter:  88  12:55:36  -9.06  -3.68   -70.282571    2             
iter:  89  12:56:00  -8.80  -3.58   -70.282599    1             
iter:  90  12:56:25  -8.73  -3.36   -70.282561    2             
iter:  91  12:56:49  -8.49  -3.60   -70.282569    2             
iter:  92  12:57:13  -8.58  -3.33   -70.282565    2             
iter:  93  12:57:38  -9.21  -3.67   -70.282554    2             
iter:  94  12:58:02  -9.41  -3.78   -70.282551    2             
iter:  95  12:58:26  -9.36  -3.75   -70.282557    1             
iter:  96  12:58:50  -9.24  -3.65   -70.282558    2             
iter:  97  12:59:15  -8.76  -3.72   -70.282604    2             
iter:  98  12:59:39  -8.67  -3.46   -70.282549    2             
iter:  99  13:00:03  -9.11  -3.64   -70.282549    2             
iter: 100  13:00:28  -9.25  -3.84   -70.282559    2             
iter: 101  13:00:52  -9.40  -3.71   -70.282556    1             
iter: 102  13:01:16  -9.61  -3.76   -70.282550    1             
iter: 103  13:01:41  -9.25  -3.87   -70.282547    2             
iter: 104  13:02:05  -8.99  -3.67   -70.282569    2             
iter: 105  13:02:29  -9.26  -3.71   -70.282556    2             
iter: 106  13:02:53  -9.18  -3.93   -70.282558    2             
iter: 107  13:03:18  -9.14  -3.68   -70.282561    1             
iter: 108  13:03:42  -9.43  -3.65   -70.282556    1             
iter: 109  13:04:07  -9.51  -3.91   -70.282567    2             
iter: 110  13:04:31  -9.23  -3.78   -70.282546    2             
iter: 111  13:04:55  -9.68  -3.83   -70.282549    2             
iter: 112  13:05:20  -9.41  -4.02   -70.282557    2             

Converged after 112 iterations.

Dipole moment: (0.000000, 0.000000, -0.000163) |e|*Ang

Energy contributions relative to reference atoms: (reference = -125465.042033)

Kinetic:        +65.589354
Potential:      -31.055349
External:        +0.000000
XC:            -104.554503
Entropy (-ST):   -0.256057
Local:           -0.134031
--------------------------
Free energy:    -70.410586
Extrapolated:   -70.282557

Fermi level: 4.67111

Warning: Showing only first 2 kpts
 Kpt  Band  Eigenvalues  Occupancy
  0    26      5.74475    0.00000
  0    27      6.53309    0.00000
  0    28      7.28722    0.00000
  0    29      7.97587    0.00000

  1    26      5.70262    0.00000
  1    27      6.49146    0.00000
  1    28      7.24578    0.00000
  1    29      7.93414    0.00000


Timing:                              incl.     excl.
-----------------------------------------------------------
Hamiltonian:                         0.735     0.002   0.0% |
 Atomic:                             0.104     0.056   0.0% |
  XC Correction:                     0.047     0.047   0.0% |
 Calculate atomic Hamiltonians:      0.286     0.286   0.0% |
 Communicate:                        0.000     0.000   0.0% |
 Initialize Hamiltonian:             0.000     0.000   0.0% |
 Poisson:                            0.003     0.003   0.0% |
 XC 3D grid:                         0.341     0.341   0.0% |
LCAO initialization:                28.984     0.072   0.0% |
 LCAO eigensolver:                  16.019     0.001   0.0% |
  Calculate projections:             0.010     0.010   0.0% |
  DenseAtomicCorrection:             0.027     0.027   0.0% |
  Distribute overlap matrix:         0.003     0.003   0.0% |
  Orbital Layouts:                   0.152     0.152   0.0% |
  Potential matrix:                 15.705    15.705   0.6% |
  Sum over cells:                    0.121     0.121   0.0% |
 LCAO to grid:                       7.445     7.445   0.3% |
 Set positions (LCAO WFS):           5.447     0.003   0.0% |
  Basic WFS set positions:           0.003     0.003   0.0% |
  Basis functions set positions:     0.000     0.000   0.0% |
  TCI: Calculate S, T, P:            5.442     5.442   0.2% |
PWDescriptor:                        0.019     0.019   0.0% |
SCF-cycle:                        2713.880   257.767   9.4% |---|
 Density:                          190.836     0.003   0.0% |
  Atomic density matrices:           0.753     0.753   0.0% |
  Mix:                              60.142    60.142   2.2% ||
  Multipole moments:                 0.053     0.053   0.0% |
  Pseudo density:                  129.885   127.058   4.6% |-|
   Symmetrize density:               2.827     2.827   0.1% |
 Hamiltonian:                       67.361     0.171   0.0% |
  Atomic:                           11.226     6.071   0.2% |
   XC Correction:                    5.155     5.155   0.2% |
  Calculate atomic Hamiltonians:    19.619    19.619   0.7% |
  Communicate:                       0.024     0.024   0.0% |
  Poisson:                           0.211     0.211   0.0% |
  XC 3D grid:                       36.110    36.110   1.3% ||
 Orthonormalize:                    99.380     0.033   0.0% |
  Band Layouts:                      0.127     0.005   0.0% |
   Inverse Cholesky:                 0.122     0.122   0.0% |
  calc_s_matrix:                     9.088     9.088   0.3% |
  projections:                      76.068    76.068   2.8% ||
  rotate_psi:                       14.064    14.064   0.5% |
 RMM-DIIS:                        1911.819   146.531   5.3% |-|
  Calculate residuals:             421.536   421.536  15.4% |-----|
  DIIS step:                       896.157     9.894   0.4% |
   Calculate residuals:            813.265   813.265  29.6% |-----------|
   Construct matrix:                 8.766     8.766   0.3% |
   Linear solve:                     1.440     1.440   0.1% |
   Update trial vectors:            12.428    12.428   0.5% |
   precondition:                    50.364    50.364   1.8% ||
  Find lambda:                       6.583     6.583   0.2% |
  Update psi:                        5.029     5.029   0.2% |
  precondition:                    105.356   105.356   3.8% |-|
  projections:                     330.625   330.625  12.0% |----|
 Subspace diag:                    186.716     0.063   0.0% |
  Band Layouts:                      0.777     0.011   0.0% |
   Diagonalize:                      0.756     0.756   0.0% |
   Distribute results:               0.010     0.010   0.0% |
  calc_h_matrix:                   155.027   155.027   5.6% |-|
  rotate_psi:                       30.849    30.849   1.1% |
Set symmetry:                        0.107     0.107   0.0% |
Other:                               1.869     1.869   0.1% |
-----------------------------------------------------------
Total:                                      2745.593 100.0%

Memory usage: 558.79 MiB
Date: Tue Feb  6 13:05:20 2018
