LAMMPS (11 Aug 2017)
dimension       3
boundary        p p p
units           metal

atom_style	atomic
neighbor	0.3 bin
neigh_modify	every 10 delay 0 check no

# Number of steps for the equilibration steps
variable        eqsteps equal 100000

# target temperature
variable	T equal 600.0

# Some high temperature to melt the crystal
variable	Tmelt equal 2000.0

#System size
variable	nx equal 6
variable	ny equal 6
variable	nz equal 6
variable	a equal 4.05

lattice		fcc ${a}
lattice		fcc 4.05
Lattice spacing in x,y,z = 4.05 4.05 4.05

region         box block 0 ${nx} 0 ${ny} 0 ${nz}
region         box block 0 6 0 ${ny} 0 ${nz}
region         box block 0 6 0 6 0 ${nz}
region         box block 0 6 0 6 0 6
create_box     1 box
Created orthogonal box = (0 0 0) to (24.3 24.3 24.3)
  2 by 2 by 5 MPI processor grid
create_atoms   1 box
Created 864 atoms

mass		1 26.9815

pair_style	eam/alloy
pair_coeff	* * my_al_potential.alloy Al

variable	T2 equal 2*${T}
variable	T2 equal 2*600
velocity	all create ${T2} 1337
velocity	all create 1200 1337

# Create a dump file. This can be visualized with
# e.g. OVITO (http://www.ovito.org/)
dump		id all atom 1000 atomsdump

# 1 fs timestep
timestep	0.001
thermo_style	custom step temp etotal pe press pxx pyy pzz lx ly lz

# output every 100th timestep
thermo		100

# Equilibration the whole system to the target temperature
fix		1 all npt temp ${T} ${T} 1 iso 0 0 3 drag 1.0
fix		1 all npt temp 600 ${T} 1 iso 0 0 3 drag 1.0
fix		1 all npt temp 600 600 1 iso 0 0 3 drag 1.0
run		${eqsteps}
run		100000
Neighbor list info ...
  update every 10 steps, delay 0 steps, check no
  max neighbors/atom: 2000, page size: 100000
  master list distance cutoff = 6.8
  ghost atom cutoff = 6.8
  binsize = 3.4, bins = 8 8 8
  1 neighbor lists, perpetual/occasional/extra = 1 0 0
  (1) pair eam/alloy, perpetual
      attributes: half, newton on
      pair build: half/bin/atomonly/newton
      stencil: half/bin/3d/newton
      bin: standard
Per MPI rank memory allocation (min/avg/max) = 3.832 | 3.836 | 3.838 Mbytes
Step Temp TotEng PotEng Press Pxx Pyy Pzz Lx Ly Lz 
       0         1200   -2801.2814   -2935.1432    5900.7949    5644.9049    5770.9587    6286.5212         24.3         24.3         24.3 
     100    562.38741   -2802.4437   -2865.1789    16961.287    17569.547    17240.084    16074.229    24.350083    24.350083    24.350083 
     200    575.19006   -2803.8079   -2867.9712    4476.4942    4065.9424    5326.3098    4037.2303    24.480069    24.480069    24.480069 
     300    557.12597   -2803.5882   -2865.7364   -6381.8776   -6557.5565   -5709.9551   -6878.1213     24.61435     24.61435     24.61435 
     400    538.50428   -2802.6185   -2862.6895   -12045.697   -11940.208   -12231.466   -11965.418    24.692327    24.692327    24.692327 
     500    584.32043    -2802.394   -2867.5758   -13280.715   -12904.225   -13004.939    -13932.98    24.693371    24.693371    24.693371 
     600    560.71392   -2802.8359   -2865.3844   -7681.7211   -7848.0877   -7399.7079   -7797.3678    24.631279    24.631279    24.631279 
     700    586.22391   -2802.9362   -2868.3303   -928.69907   -1259.5372   -712.78136    -813.7787    24.544069    24.544069    24.544069 
     800    584.34185   -2802.4498   -2867.6341    5310.5725    5131.7706    5574.4257    5225.5212    24.470779    24.470779    24.470779 
     900    573.97609   -2801.9028   -2865.9307    8500.3049    7691.1798    8502.6219    9307.1129     24.43874     24.43874     24.43874 
    1000    591.95235   -2801.7484   -2867.7816    6840.6549    7036.7036    6828.4997    6656.7613     24.45335     24.45335     24.45335 
    1100     566.0422    -2801.762   -2864.9048    3615.8177    2896.7373    2842.4187    5108.2971    24.500184    24.500184    24.500184 
    1200    572.38335   -2801.5808   -2865.4311   -1246.7275   -1464.9055   -1801.3263   -473.95077    24.555617    24.555617    24.555617 
    1300    575.45344   -2801.2158   -2865.4085   -4664.9974   -3940.8728   -5413.4578   -4640.6616    24.596266    24.596266    24.596266 
    1400    566.77395   -2800.8992   -2864.1237   -5358.6659   -5069.5732   -5436.2804    -5570.144    24.608495    24.608495    24.608495 
    1500    560.77101   -2800.7391   -2863.2939   -3560.0981    -3626.222   -3962.1168   -3091.9554    24.590961    24.590961    24.590961 
    1600    567.85931   -2800.5779   -2863.9234   -744.27577   -738.70239   -1192.0499     -302.075    24.555573    24.555573    24.555573 
    1700    593.62273   -2800.3126   -2866.5321    1717.5721    2035.4894    905.75868    2211.4682    24.518762    24.518762    24.518762 
    1800    591.37954   -2800.0026   -2865.9718    3829.1398    4141.9434    3052.8424    4292.6335    24.496039    24.496039    24.496039 
    1900    588.40245   -2799.7939   -2865.4311    3929.8697    4330.1145     3628.948    3830.5467    24.495581    24.495581    24.495581 
    2000    576.36972   -2799.6812   -2863.9761    2769.9578    3170.8715     2911.259     2227.743     24.51585     24.51585     24.51585 
    2100    588.75588   -2799.5315   -2865.2081   -267.79371   -828.16849    116.53127   -91.743916     24.54648     24.54648     24.54648 
    2200    598.37295   -2799.3254   -2866.0748   -2556.3692   -2197.7158   -3486.1514   -1985.2405    24.572803    24.572803    24.572803 
    2300    603.95866    -2799.127   -2866.4995   -3811.0203   -4637.3891   -3002.0808   -3793.5911      24.5851      24.5851      24.5851 
    2400    564.93505   -2798.9735   -2861.9929   -2221.5949   -2037.8735   -2643.5562   -1983.3549    24.579445    24.579445    24.579445 
    2500    592.86779   -2798.8355   -2864.9708   -1292.8757   -862.47368   -2623.1564   -392.99701    24.560695    24.560695    24.560695 
    2600    576.81532   -2798.6761   -2863.0207    1055.5265      722.084    674.17917    1770.3163    24.537223    24.537223    24.537223 
    2700    595.55445   -2798.4879   -2864.9229    2201.6526    1913.8266    2250.0114    2441.1198    24.519478    24.519478    24.519478 
    2800    588.75893   -2798.3277   -2864.0047      2983.89    3422.8888    2840.0345    2688.7467    24.514817    24.514817    24.514817 
    2900    597.38099   -2798.2274   -2864.8661     1841.278    2252.5734      873.169    2398.0917    24.523949    24.523949    24.523949 
    3000    579.23526   -2798.1361   -2862.7506    558.65678    603.37703    530.37728    542.21602    24.542648    24.542648    24.542648 
    3100    594.49357   -2798.0054   -2864.3221   -1211.4149   -1717.1303   -668.22064   -1248.8938    24.561745    24.561745    24.561745 
    3200    599.38842   -2797.8634   -2864.7261   -2267.2006   -2066.0348    -2013.232   -2722.3351    24.573199    24.573199    24.573199 
    3300    585.44905   -2797.7539   -2863.0617   -1658.2612   -695.47527   -1302.5067   -2976.8015    24.572459    24.572459    24.572459 
    3400    587.81586   -2797.6615   -2863.2332   -914.01275   -282.15962   -1636.2428    -823.6358     24.56173     24.56173     24.56173 
    3500      607.207   -2797.5568   -2865.2916   -1.6009751    709.89683   -169.35817   -545.34159    24.546519    24.546519    24.546519 
    3600    594.31871     -2797.45   -2863.7471    1378.5134    1896.8155    1400.4645    838.26011    24.533192    24.533192    24.533192 
    3700    584.39169   -2797.3567   -2862.5465    2015.2637    1904.4087    2464.4624      1676.92    24.527739    24.527739    24.527739 
    3800    586.46952   -2797.2906   -2862.7122    1816.3965    1948.7174    1355.0239    2145.4483    24.532104    24.532104    24.532104 
    3900    611.11124    -2797.234   -2865.4044    235.89687   -237.41619    1173.1519   -228.04508    24.543802    24.543802    24.543802 
    4000    584.18244   -2797.1713   -2862.3377   -354.74732   -774.06582    96.373961   -386.55011    24.556753    24.556753    24.556753 
    4100    620.70066   -2797.0992   -2866.3393   -1823.7797   -1406.7743   -2545.9164   -1518.6483    24.566048    24.566048    24.566048 
    4200    583.98098    -2797.036   -2862.1799   -1116.9418   -645.92132    -342.8234   -2362.0806    24.567596    24.567596    24.567596 
    4300    585.34335   -2796.9738   -2862.2697   -585.08234   -190.95438   -1443.5867   -120.70589    24.562077    24.562077    24.562077 
    4400    590.56249   -2796.9205   -2862.7986    62.042047    445.93995    37.833164   -297.64697    24.551627    24.551627    24.551627 
    4500    596.85172   -2796.8636   -2863.4433    758.64418    601.00242     534.4797    1140.4504    24.540997    24.540997    24.540997 
    4600    599.99736   -2796.8075   -2863.7381    1354.2419    1390.8552    1764.2402    907.63023    24.535038    24.535038    24.535038 
    4700    611.69329   -2796.7681   -2865.0034    840.88886    88.356988    1681.0534    753.25616    24.536213    24.536213    24.536213 
    4800    583.63566   -2796.7414   -2861.8468     1016.634    1018.1513    1359.7365    672.01421    24.543441    24.543441    24.543441 
    4900    605.88793   -2796.7051   -2864.2928   -325.00405   -197.92969    -376.1097   -400.97275    24.553805    24.553805    24.553805 
    5000    608.90259   -2796.6642   -2864.5882   -1250.9713   -813.88525   -1245.0693   -1693.9593    24.561995    24.561995    24.561995 
    5100    579.95117   -2796.6263   -2861.3207   -670.28459   -635.11335   -481.17577   -894.56464    24.564523    24.564523    24.564523 
    5200    597.14579   -2796.6015    -2863.214   -820.30608   -1281.2116    -561.0411   -618.66554    24.560626    24.560626    24.560626 
    5300    621.56353   -2796.5678   -2865.9041   -783.03028   -891.01654   -793.02742   -665.04689    24.553121    24.553121    24.553121 
    5400    586.40339   -2796.5457   -2861.9599    877.51775    416.69264    579.43593    1636.4247    24.544059    24.544059    24.544059 
    5500    612.18412    -2796.512   -2864.8021    548.05437   -243.34019    1141.7223    745.78103     24.53896     24.53896     24.53896 
    5600    606.63061   -2796.4859   -2864.1565     799.3989    1558.3388    185.24002     654.6179    24.538902    24.538902    24.538902 
    5700    618.61841   -2796.4707   -2865.4785     184.9448   -499.52039    880.76564    173.58915    24.543606    24.543606    24.543606 
    5800    588.91625   -2796.4626   -2862.1571    342.41225    37.429742    810.26285    179.54416     24.55079     24.55079     24.55079 
    5900    616.85549   -2796.4381   -2865.2492    -1098.744   -1134.6843   -766.44391   -1395.1037    24.558409    24.558409    24.558409 
    6000    590.40984   -2796.4056   -2862.2667   -565.73268   -529.16041   -745.62126   -422.41637    24.562869    24.562869    24.562869 
    6100    588.61282   -2796.3827   -2862.0433   -665.96871   -1200.7135   -291.24418   -505.94846    24.562391    24.562391    24.562391 
    6200    592.18522   -2796.3652   -2862.4243   -242.63977   -567.89482   -573.02327    412.99878    24.557285    24.557285    24.557285 
    6300    621.44845   -2796.3497   -2865.6732   -388.30367   -582.38173   -319.49232   -263.03694    24.550009    24.550009    24.550009 
    6400    608.92963   -2796.3327   -2864.2597    540.63805     941.8588    186.52365     493.5317    24.543709    24.543709    24.543709 
    6500    620.96093   -2796.3239   -2865.5931    283.11511    307.88192    47.184675    494.27874    24.541179    24.541179    24.541179 
    6600    614.55629   -2796.3191   -2864.8738    356.08589    834.05339    1099.4741   -865.26985    24.543366    24.543366    24.543366 
    6700    612.49256   -2796.3231   -2864.6476   -95.800274    455.86742    385.81772    -1129.086    24.548725    24.548725    24.548725 
    6800    593.46231   -2796.3221   -2862.5237    -183.2221    82.985399   -688.50537    55.853669    24.554809    24.554809    24.554809 
    6900    597.03297   -2796.3213   -2862.9212   -543.37447     949.0607   -564.13525   -2015.0489    24.559052    24.559052    24.559052 
    7000     587.0466    -2796.318    -2861.804   -460.29122   -121.77473   -131.44023   -1127.6587     24.55998     24.55998     24.55998 
    7100    598.79609   -2796.3135   -2863.1101   -522.25875   -668.27425   -402.24289   -496.25911     24.55728     24.55728     24.55728 
    7200    589.45673    -2796.304   -2862.0588    129.59289   -578.14641    444.01101    522.91407     24.55189     24.55189     24.55189 
    7300    620.49082   -2796.2973    -2865.514    -177.4338    503.89296    -203.4404   -832.75397    24.546212    24.546212    24.546212 
    7400    593.56979   -2796.2939   -2862.5075    698.55748    1365.7731   -549.85739    1279.7568     24.54265     24.54265     24.54265 
    7500    591.65244   -2796.2945   -2862.2942    895.39524     795.0966    1090.6437    800.44538    24.542461    24.542461    24.542461 
    7600    602.46247   -2796.3027   -2863.5083    358.70245    494.34411    318.81879    262.94447    24.545416    24.545416    24.545416 
    7700    586.91057   -2796.3125   -2861.7832    287.95161    1073.7687    251.62485   -461.53866    24.550256    24.550256    24.550256 
    7800    591.04918   -2796.3053   -2862.2377   -92.260878   -316.43521    77.159088   -37.506518    24.555545    24.555545    24.555545 
    7900    597.96525   -2796.3056   -2863.0095   -413.66726    217.92761    -329.2785   -1129.6509     24.55808     24.55808     24.55808 
    8000    603.61415   -2796.3128   -2863.6468   -556.53145    687.54147   -1595.6801   -761.45567    24.557229    24.557229    24.557229 
    8100    580.64794   -2796.3221   -2861.0942    196.62404    1071.6701   -1100.7877    618.98971    24.553749    24.553749    24.553749 
    8200    610.35612   -2796.3216   -2864.4078   -275.89372   -78.086003   -1143.1087    393.51353    24.549762    24.549762    24.549762 
    8300    598.43708   -2796.3195   -2863.0761    543.89169    1548.6284    350.05618   -267.00948    24.546127    24.546127    24.546127 
    8400    585.41461   -2796.3299   -2861.6337    932.46694    814.48903    363.28567    1619.6261    24.544066    24.544066    24.544066 
    8500    598.53272    -2796.337   -2863.1042    540.72886   -646.49429    541.99397    1726.6869    24.545488    24.545488    24.545488 
    8600    595.03293   -2796.3466   -2862.7235    294.23985    661.02615     298.9812    -77.28779     24.54908     24.54908     24.54908 
    8700    589.56008   -2796.3584   -2862.1247     17.34562    678.83639     -1109.93    483.13045    24.553073    24.553073    24.553073 
    8800    576.47536   -2796.3577   -2860.6644    351.61832   -235.44298    222.71532    1067.5826    24.556573    24.556573    24.556573 
    8900    611.83401   -2796.3619   -2864.6129   -834.47892   -533.51118   -825.73602   -1144.1896    24.557816    24.557816    24.557816 
    9000    606.20456   -2796.3629   -2863.9859    -448.6604   -847.78834   -526.63881    28.445942    24.556318    24.556318    24.556318 
    9100    578.87581   -2796.3765    -2860.951      364.484    561.53838    398.57891    133.33473    24.552172    24.552172    24.552172 
    9200    596.75953   -2796.3803   -2862.9497    329.87008    225.40012   -112.94014    877.15026    24.548112    24.548112    24.548112 
    9300    595.05186   -2796.3871    -2862.766    590.48823    1983.6045   -39.324162   -172.81569    24.545381    24.545381    24.545381 
    9400    601.51115   -2796.3979   -2863.4974    566.82944    766.11934    593.56776     340.8012    24.545138    24.545138    24.545138 
    9500    586.46195   -2796.4145   -2861.8353    735.45867    712.48233    999.00082    494.89285     24.54725     24.54725     24.54725 
    9600     600.9769   -2796.4252   -2863.4651   -218.95806     110.3967   -881.93915    114.66828    24.551382    24.551382    24.551382 
    9700    603.72152   -2796.4283   -2863.7743   -457.06235   -26.298528   -1186.3682   -158.52034     24.55494     24.55494     24.55494 
    9800    592.80689   -2796.4357   -2862.5642   -355.76186    -614.1289   -807.81533    354.65866    24.556018    24.556018    24.556018 
    9900    607.42714   -2796.4371   -2864.1965   -452.06496   -521.87384   -144.70171   -689.61934    24.554718    24.554718    24.554718 
   10000    599.06243   -2796.4324   -2863.2587   -105.15933    266.14881    1179.6553   -1761.2821    24.552231    24.552231    24.552231 
   10100    607.15949   -2796.4315   -2864.1611   -92.943119    410.10651   -480.22766    -208.7082     24.54927     24.54927     24.54927 
   10200    581.40589   -2796.4365   -2861.2932    657.51173    754.71377    139.38953    1078.4319    24.546764    24.546764    24.546764 
   10300    595.16505   -2796.4315   -2862.8231    399.67897    1454.9345    65.147326   -321.04486    24.546723    24.546723    24.546723 
   10400    588.92516   -2796.4311   -2862.1266    404.75616     981.5421    313.08516   -80.358785    24.548106    24.548106    24.548106 
   10500    589.76526   -2796.4242   -2862.2134     280.4254    1602.1527    255.14318   -1016.0196    24.550893    24.550893    24.550893 
   10600    612.59631   -2796.4199    -2864.756   -692.48927   -958.05462    3.8899084   -1123.3031    24.553213    24.553213    24.553213 
   10700     609.7688   -2796.4093   -2864.4299   -568.98832   -1576.1343    8.6881896   -139.51882    24.554367    24.554367    24.554367 
   10800    593.23248   -2796.4012   -2862.5772    29.989642    461.53513   -324.98866   -46.577545    24.553892    24.553892    24.553892 
   10900    599.55304   -2796.4035   -2863.2845    -78.33672    472.70359    -576.1692   -131.54455    24.551712    24.551712    24.551712 
   11000    585.18643   -2796.4024   -2861.6808    348.52995   -562.63451    619.92407    988.30028    24.549307    24.549307    24.549307 
   11100    587.82954   -2796.4037    -2861.977    329.63208   -27.827664    611.20978    405.51411    24.547668    24.547668    24.547668 
   11200    607.05221   -2796.4016   -2864.1192     31.02697   -249.81909    252.09716    90.802839      24.5475      24.5475      24.5475 
   11300    598.82038    -2796.399   -2863.1984    339.94231   -83.761701    855.02739    248.56125    24.548766    24.548766    24.548766 
   11400    594.03763   -2796.4043   -2862.6701    157.24417    409.99354   -202.22672    263.96569    24.550756    24.550756    24.550756 
   11500    603.34825   -2796.4059   -2863.7103   -193.97432   -800.56609   -380.15925    598.80237    24.553072    24.553072    24.553072 
   11600    609.13459   -2796.4133   -2864.3632    -569.0596   -484.80852    173.45248   -1395.8228    24.554199    24.554199    24.554199 
   11700    589.56044   -2796.4165   -2862.1829   -43.735604   -406.37953   -11.800553    286.97327    24.554006    24.554006    24.554006 
   11800    625.91663   -2796.4176   -2866.2395    -757.3951   -668.09145    -1765.665    161.57114    24.552456    24.552456    24.552456 
   11900    614.11507   -2796.4204   -2864.9259    -250.9342    537.63458   -1117.5923   -172.84491    24.550046    24.550046    24.550046 
   12000    590.80287   -2796.4275   -2862.3325    473.93259   -506.02955    795.61881    1132.2085    24.548204    24.548204    24.548204 
   12100    610.25511   -2796.4388   -2864.5137    170.20371    1196.9415   -107.31074   -579.01957    24.547936    24.547936    24.547936 
   12200    615.45728   -2796.4506   -2865.1058   -53.561482   -773.28896    991.75952     -379.155    24.549597    24.549597    24.549597 
   12300     580.3387    -2796.469   -2861.2067    459.04162    954.55618    404.95024    17.618449    24.551936    24.551936    24.551936 
   12400    583.33814    -2796.484   -2861.5562    183.39852     198.0923   -188.88892    540.99218    24.553725    24.553725    24.553725 
   12500    574.19472    -2796.494   -2860.5463    86.123063   -376.54956   -614.46332    1249.3821    24.554201    24.554201    24.554201 
   12600    603.76238   -2796.4891   -2863.8397   -452.88989   -287.36384   -758.47057   -312.83527    24.553261    24.553261    24.553261 
   12700    598.12147   -2796.4936    -2863.215   -28.360323    499.72085    147.26978    -732.0716    24.550136    24.550136    24.550136 
   12800    609.94121   -2796.4941    -2864.534    -60.17048   -897.57549    195.55792    521.50613    24.547076    24.547076    24.547076 
   12900    606.46028   -2796.4888   -2864.1404    202.38256    270.08694   -69.386403    406.44714    24.545839    24.545839    24.545839 
   13000    618.83036   -2796.4807   -2865.5121   -226.71405   -97.684862   -52.267724   -530.18958    24.546946    24.546946    24.546946 
   13100    588.25405   -2796.4799   -2862.1005    277.97128    966.92613   -5.7762816   -127.23599    24.548494    24.548494    24.548494 
   13200    613.14446   -2796.4754   -2864.8726   -314.48058    65.744923    -1228.596    219.40928    24.550574    24.550574    24.550574 
   13300    630.75406   -2796.4665    -2866.828    -1069.175    -1904.988   -332.00337   -970.53359    24.552571    24.552571    24.552571 
   13400    617.13155   -2796.4645   -2865.3064    -708.5647   -1381.1518   -1735.4506    990.90823    24.552742    24.552742    24.552742 
   13500     595.5578   -2796.4631   -2862.8985   -93.924124     487.9475   -247.48885   -522.23102    24.551337    24.551337    24.551337 
   13600    594.59748   -2796.4576   -2862.7859    232.72788    -584.7342   -162.49836    1445.4162    24.549442    24.549442    24.549442 
   13700    620.60485   -2796.4564   -2865.6858   -208.46498   -662.67288   -538.44103    575.71896    24.548012    24.548012    24.548012 
   13800    598.77803   -2796.4666   -2863.2612    176.19965   -231.86757    453.27784    307.18868    24.547601    24.547601    24.547601 
   13900    609.24464   -2796.4707   -2864.4329    25.453999   -43.947457   -401.00171    521.31116      24.5491      24.5491      24.5491 
   14000    592.04755   -2796.4761   -2862.5199    207.65874    13.720532   -785.84273    1395.0984    24.551439    24.551439    24.551439 
   14100    603.74399   -2796.4796   -2863.8282    -320.1733   -1057.3481   -237.93714    334.76535    24.553457    24.553457    24.553457 
   14200    605.92052   -2796.4875   -2864.0789   -470.44872   -122.18593   -1132.0713    -157.0889    24.553817    24.553817    24.553817 
   14300    590.46808   -2796.4919   -2862.3595    70.390135    -1118.974    971.40235    358.74207     24.55283     24.55283     24.55283 
   14400    627.53099   -2796.4892   -2866.4912   -652.58531   -1383.0133   -279.80533   -294.93728    24.551349    24.551349    24.551349 
   14500    593.52531   -2796.4966   -2862.7052     393.1647   -18.764277    1560.7236   -362.46525    24.549265    24.549265    24.549265 
   14600    611.90785   -2796.4994   -2864.7587    -37.66817   -363.79114    175.74197    75.044659    24.548588    24.548588    24.548588 
   14700     592.4534   -2796.4961   -2862.5851    466.33577    234.32747    1292.0642   -127.38433    24.550114    24.550114    24.550114 
   14800     596.6608   -2796.4992   -2863.0576    73.359534    204.39989   -24.195017    39.873731    24.552505    24.552505    24.552505 
   14900    595.08338   -2796.5004   -2862.8828   -223.27855    352.00558   -700.56316   -321.27808    24.554352    24.554352    24.554352 
   15000    610.68253   -2796.4917   -2864.6143   -521.61648   -1155.4822   -347.35464   -62.012642    24.554893    24.554893    24.554893 
   15100    622.09865   -2796.4868   -2865.8828   -968.01208   -1898.5306   -423.55897   -581.94664    24.553424    24.553424    24.553424 
   15200    578.59276   -2796.4906   -2861.0335    547.40759    1228.7673   -38.276556    451.73201    24.549962    24.549962    24.549962 
   15300    596.94317   -2796.4835   -2863.0734    567.73108    318.59031    350.63644    1033.9665    24.547206    24.547206    24.547206 
   15400    594.49767   -2796.4839    -2862.801    507.32089   -671.11278    864.49184    1328.5836    24.545962    24.545962    24.545962 
   15500    632.23561   -2796.4812   -2867.0081   -409.56766    -653.3538   -511.48627   -63.862898    24.547138    24.547138    24.547138 
   15600    607.11449    -2796.481   -2864.2056   -155.18542    -842.4151   -8.8604884    385.71932    24.549927    24.549927    24.549927 
   15700     599.0652   -2796.4738   -2863.3004   -124.93429   -802.91938    796.82193   -368.70542    24.553402    24.553402    24.553402 
   15800    597.50918   -2796.4659   -2863.1189   -384.18772   -969.96485   -148.21813   -34.380178    24.555718    24.555718    24.555718 
   15900    595.89353   -2796.4618   -2862.9347    -141.0558   -208.36484   -349.58836     134.7858    24.555567    24.555567    24.555567 
   16000    611.69541   -2796.4564   -2864.6919   -615.80451   -290.66012   -1066.6532   -490.10025    24.553688    24.553688    24.553688 
   16100    586.82252   -2796.4515   -2861.9125    454.11006    733.10259   -434.10629    1063.3339    24.550461    24.550461    24.550461 
   16200    598.05826   -2796.4443   -2863.1586    58.849079   -209.56265     10.23452    375.87537     24.54773     24.54773     24.54773 
   16300    607.96195   -2796.4373   -2864.2564    148.40004   -112.87764    925.65473   -367.57697    24.545895    24.545895    24.545895 
   16400    596.95491   -2796.4338    -2863.025    720.66097    200.37096     913.1882    1048.4238    24.546033    24.546033    24.546033 
   16500    573.25161   -2796.4415   -2860.3886    914.25136   -94.056615    1737.0839    1099.7267    24.548128    24.548128    24.548128 
   16600    598.57824   -2796.4486   -2863.2209   -79.690984   -68.774492   -568.66349    398.36503    24.551627    24.551627    24.551627 
   16700    586.57129   -2796.4494   -2861.8824   -89.179979    174.19949   -650.22973     208.4903    24.554883    24.554883    24.554883 
   16800    588.32753   -2796.4464   -2862.0752   -274.53286   -886.25767    637.96395   -575.30485    24.556458    24.556458    24.556458 
   16900     597.7785   -2796.4496   -2863.1327   -357.35503   -956.54995    735.22737    -850.7425    24.555379    24.555379    24.555379 
   17000    610.84982   -2796.4505   -2864.5917     -403.699   -955.56362   -444.80318    189.26979    24.553045    24.553045    24.553045 
   17100    587.51556   -2796.4545   -2861.9928    376.44378   -155.13049    892.39416    392.06766    24.550081    24.550081    24.550081 
   17200    605.76295   -2796.4629   -2864.0366    60.092106   -609.67879    178.06802     611.8871    24.547964    24.547964    24.547964 
   17300    572.32215   -2796.4757   -2860.3191    945.01758   -50.741718    1235.8566    1649.9379     24.54728     24.54728     24.54728 
   17400    593.68542   -2796.4838   -2862.7103    319.52783    565.66744    20.992017    371.92404    24.548768    24.548768    24.548768 
   17500    584.28802   -2796.4845   -2861.6627    421.63149   -250.38018    1053.7292    461.54541    24.551793    24.551793    24.551793 
   17600    593.29433   -2796.4839   -2862.6668   -276.96882   -266.60264   -1069.8305    505.52669    24.554572    24.554572    24.554572 
   17700    612.91273   -2796.4803   -2864.8516    -645.5471    121.98911   -1638.6837   -419.94676    24.555746    24.555746    24.555746 
   17800    612.44275   -2796.4764   -2864.7953   -596.93352    -1204.183    135.42162   -722.03915    24.554836    24.554836    24.554836 
   17900    584.86104   -2796.4815   -2861.7236    276.54175    468.87133   -637.54135    998.29527    24.551628    24.551628    24.551628 
   18000     582.0605   -2796.4783    -2861.408    611.60104    307.41599    661.53461    865.85251    24.548721    24.548721    24.548721 
   18100    597.05685    -2796.465   -2863.0676    411.83528    417.58186   -365.15621    1183.0802     24.54748     24.54748     24.54748 
   18200    635.22097   -2796.4573   -2867.3171   -481.45248   -349.88509   -869.88925   -224.58311    24.547715    24.547715    24.547715 
   18300    590.20008   -2796.4633    -2862.301    559.06851    1111.8625    269.23644    296.10664    24.548894    24.548894    24.548894 
   18400    603.57542   -2796.4702   -2863.7999    -12.81235    -719.6341    711.12803    -29.93098    24.551147    24.551147    24.551147 
   18500    602.36923   -2796.4687   -2863.6639   -354.38776   -139.10059    133.39364   -1057.4563    24.553808    24.553808    24.553808 
   18600    592.62204   -2796.4665   -2862.5743   -112.48309   -211.38634    254.74351   -380.80646    24.554985    24.554985    24.554985 
   18700    611.70767   -2796.4566   -2864.6935   -729.40853    -234.4644   -1121.3706   -832.39056     24.55482     24.55482     24.55482 
   18800    600.14967   -2796.4548   -2863.4024   -75.389169    199.66675    137.02369   -562.85794    24.552201    24.552201    24.552201 
   18900     626.4928    -2796.457   -2866.3432   -454.45899   -1078.1382   -637.40779    352.16906    24.548805    24.548805    24.548805 
   19000    608.27123   -2796.4583   -2864.3118    46.327434    87.021165    118.74064   -66.779506    24.546138    24.546138    24.546138 
   19100    594.42925   -2796.4599   -2862.7694    504.13388    -450.1402     961.5874    1000.9545    24.545194    24.545194    24.545194 
   19200    607.52879   -2796.4573    -2864.228    136.19831   -90.117439    614.47438   -115.76203    24.546817    24.546817    24.546817 
   19300     603.5727   -2796.4592   -2863.7886   -116.06206   -183.39252    13.453155   -178.24683     24.54979     24.54979     24.54979 
   19400    604.05543   -2796.4673   -2863.8506   -375.61394    -623.6772    735.11245    -1238.277    24.552169    24.552169    24.552169 
   19500    596.82484   -2796.4725   -2863.0492   -208.63667    337.77667   -284.52537    -679.1613    24.553415    24.553415    24.553415 
   19600    594.92317   -2796.4716   -2862.8362   -41.266579   -608.37655    503.70243   -19.125614     24.55352     24.55352     24.55352 
   19700    614.66776   -2796.4754   -2865.0425   -420.43141   -367.16555   -2.0907136   -892.03795    24.552225    24.552225    24.552225 
   19800    600.12214    -2796.474   -2863.4185    38.537631   -53.371674   -103.56218    272.54675    24.550794    24.550794    24.550794 
   19900    583.97784   -2796.4761   -2861.6197    425.64635    1106.2714    678.52251    -507.8549    24.549836    24.549836    24.549836 
   20000    589.17505   -2796.4812   -2862.2046    508.17619    465.40079    527.58555    531.54223    24.549311    24.549311    24.549311 
   20100    582.34799   -2796.4839   -2861.4457    511.17501    741.65661    148.16894    643.69948    24.549697    24.549697    24.549697 
   20200    606.48427   -2796.4825   -2864.1367   -303.10832     590.4951   -1149.9919   -349.82815    24.551035    24.551035    24.551035 
   20300    612.42112   -2796.4853   -2864.8018   -271.36449   -261.95891    -86.06296    -466.0716    24.551999    24.551999    24.551999 
   20400     588.2932   -2796.4906   -2862.1156     82.05468    -189.9659   -344.92437    781.05431    24.552839    24.552839    24.552839 
   20500    598.12928   -2796.4948    -2863.217   -181.04373   -640.77411    320.42922   -222.78629    24.553085    24.553085    24.553085 
   20600    605.05277   -2796.4956   -2863.9901   -130.61938    35.072943   -941.72783    514.79673    24.552626    24.552626    24.552626 
   20700    623.46955   -2796.4984   -2866.0474   -521.17541    182.52543   -1121.0385   -625.01317     24.55172     24.55172     24.55172 
   20800    597.35387   -2796.5015   -2863.1373    147.25258    654.77432   -1211.3518    998.33522    24.550801    24.550801    24.550801 
   20900    594.57734   -2796.5012   -2862.8272    280.87453    888.76445     176.4559   -222.59676    24.550635    24.550635    24.550635 
   21000    594.18768   -2796.5071   -2862.7896    19.284747    806.24594   -745.02022   -3.3714803    24.550689    24.550689    24.550689 
   21100    589.95089   -2796.5084   -2862.3183    340.58243    883.60309   -492.69824    630.84243    24.550874    24.550874    24.550874 
   21200     600.7447   -2796.5076   -2863.5216   -114.11701   -383.29513   -713.76279    754.70688    24.551079    24.551079    24.551079 
   21300    571.41982   -2796.5078   -2860.2505    857.03657    895.82436    1252.2787    423.00664    24.550926    24.550926    24.550926 
   21400    602.47863    -2796.505   -2863.7124    -241.1491   -328.34922    6.4429469   -401.54102    24.551239    24.551239    24.551239 
   21500    580.58552   -2796.5049   -2861.2701    463.79613      691.352    619.35738    80.679013    24.550642    24.550642    24.550642 
   21600    603.71865   -2796.5037   -2863.8494   -249.20347    234.84616    -722.2182   -260.23837    24.550029    24.550029    24.550029 
   21700     584.1458    -2796.507   -2861.6694    493.09755    1445.7228   -792.30307    825.87294     24.54894     24.54894     24.54894 
   21800    578.33597   -2796.5115   -2861.0258    651.18245     1367.845    68.411579    517.29073    24.548238    24.548238    24.548238 
   21900    601.02159   -2796.5141    -2863.559     58.94181    892.08849   -418.18883   -297.07423    24.548917    24.548917    24.548917 
   22000    598.14057   -2796.5165     -2863.24    4.0101992    100.22646   -303.52695    215.33108    24.550078    24.550078    24.550078 
   22100    612.55647   -2796.5141   -2864.8457   -405.46038   -1693.8717    566.85329   -89.362766    24.551533    24.551533    24.551533 
   22200    607.99955   -2796.5173   -2864.3406   -400.19723   -243.30921   -952.39315   -4.8893452    24.551903    24.551903    24.551903 
   22300    596.98217   -2796.5224   -2863.1166   -52.023387   -147.43653    940.66174   -949.29537    24.551159    24.551159    24.551159 
   22400    584.86062   -2796.5192   -2861.7613    612.79197   -115.08425    785.01187    1168.4483      24.5505      24.5505      24.5505 
   22500    617.83157   -2796.5185   -2865.4386   -378.68335   -309.49464   -712.65968   -113.89572    24.550375    24.550375    24.550375 
   22600     605.0368   -2796.5161   -2864.0089   -379.77227   -1319.3602      627.174   -447.13057    24.550529    24.550529    24.550529 
   22700    589.05766   -2796.5002   -2862.2104    119.64452   -1101.3951    1026.9112    433.41754    24.550982    24.550982    24.550982 
   22800    609.71402   -2796.4863   -2864.5008   -319.08903   -826.30865    350.09206   -481.05049    24.550959    24.550959    24.550959 
   22900    572.02249   -2796.4697   -2860.2797    420.95233   -389.70504    220.45732    1432.1047    24.550808    24.550808    24.550808 
   23000    582.02692   -2796.4492   -2861.3752    645.99504   -96.109446    1267.3774    766.71717    24.550574    24.550574    24.550574 
   23100    599.21141   -2796.4393   -2863.2822   -131.29793   -399.90223    35.054275   -29.045842    24.550344    24.550344    24.550344 
   23200    588.53662   -2796.4285   -2862.0807    300.42386    52.201151     1261.041   -411.97058    24.549982    24.549982    24.549982 
   23300    607.70709   -2796.4198   -2864.2104     -124.378   -253.47899    300.92475   -420.57976    24.549776    24.549776    24.549776 
   23400    580.60877   -2796.4216   -2861.1894    557.88691    782.61667   -97.867366    988.91143    24.549173    24.549173    24.549173 
   23500    622.69606   -2796.4118   -2865.8745   -605.78344    -865.8395   -595.85119   -355.65962    24.549801    24.549801    24.549801 
   23600    598.98699   -2796.4109   -2863.2288      73.1281   -57.165052    1014.8173   -738.26795    24.549971    24.549971    24.549971 
   23700    591.80765   -2796.4079   -2862.4249    236.31886    291.97829    629.25705   -212.27877    24.550529    24.550529    24.550529 
   23800    603.36298   -2796.4035   -2863.7096    -228.0882    159.12584   -141.14327   -702.24716    24.551137    24.551137    24.551137 
   23900    609.83843   -2796.3941   -2864.4225   -124.89283    645.91751   -574.08009    -446.5159    24.551526    24.551526    24.551526 
   24000    579.24038   -2796.3967   -2861.0118    500.52318    65.114419    943.33567    493.11945    24.551064    24.551064    24.551064 
   24100    598.94535   -2796.3952   -2863.2084    21.253283   -1244.5445     378.4973    929.80705    24.550836    24.550836    24.550836 
   24200    604.28071   -2796.3824   -2863.7909    -132.6787   -857.84396    548.44167   -88.633811    24.551472    24.551472    24.551472 
   24300    600.27251   -2796.3801   -2863.3414   -124.00236   -1212.9435    847.91678   -6.9803294    24.551437    24.551437    24.551437 
   24400    599.13232   -2796.3792   -2863.2133    65.593618    885.60234   -511.84018    -176.9813     24.55119     24.55119     24.55119 
   24500    593.42188   -2796.3775   -2862.5746    102.95167   -412.34721     370.3355    350.86673    24.550891    24.550891    24.550891 
   24600     594.7181    -2796.378   -2862.7197    140.48619    -621.4637    757.21221    285.71007    24.550338    24.550338    24.550338 
   24700     596.6699    -2796.379   -2862.9384    250.17108   -841.86152    2368.7361   -776.36134    24.549944    24.549944    24.549944 
   24800     593.8423   -2796.3731   -2862.6171    287.17397   -29.113393     194.5064     696.1289    24.550255    24.550255    24.550255 
   24900     604.2904   -2796.3703   -2863.7798   -82.384038   -402.27769    95.179707    59.945871    24.550676    24.550676    24.550676 
   25000     613.0783   -2796.3739   -2864.7637   -298.43912   -245.00525    1.9312449   -652.24335    24.550883    24.550883    24.550883 
   25100    569.44575   -2796.3774   -2859.8999    781.87016    108.74162    953.51992    1283.3489    24.551086    24.551086    24.551086 
   25200    608.03466   -2796.3779   -2864.2051      -193.46   -354.35052    625.49971   -851.52918    24.551826    24.551826    24.551826 
   25300    600.03239   -2796.3861   -2863.3206    24.764494   -753.37045    834.32071   -6.6567796    24.552184    24.552184    24.552184 
   25400    612.44522   -2796.3942   -2864.7134   -252.86153   -175.32628   -372.96207   -210.29625    24.552549    24.552549    24.552549 
   25500    604.07956   -2796.4093   -2863.7953   -113.25443    140.15198   -237.51944   -242.39583    24.552243    24.552243    24.552243 
   25600     604.1331   -2796.4263   -2863.8182   -100.76261   -893.42917    501.97014    89.171208    24.551554    24.551554    24.551554 
   25700    603.56048   -2796.4387   -2863.7668    12.439293    252.75298   -353.25536    137.82025    24.550955    24.550955    24.550955 
   25800    580.36109   -2796.4549   -2861.1951    467.79614    86.034845    478.21426     839.1393    24.550284    24.550284    24.550284 
   25900    589.90011   -2796.4673   -2862.2715    255.33405    668.10334   -374.41965    472.31846    24.550258    24.550258    24.550258 
   26000    594.25938   -2796.4751   -2862.7656    86.325312   -238.07237    325.71065    171.33766     24.55077     24.55077     24.55077 
   26100    594.53934   -2796.4773    -2862.799    30.150005    138.57237    97.203091   -145.32545    24.551189    24.551189    24.551189 
   26200    592.42832   -2796.4795   -2862.5658    242.81869    497.05643    20.131447    211.26818    24.551226    24.551226    24.551226 
   26300    571.05998   -2796.4844    -2860.187    571.10878    544.52112    1042.7071    126.09816    24.551197    24.551197    24.551197 
   26400    592.44027   -2796.4841   -2862.5717    225.06835    45.496922    156.31458    473.39353     24.55127     24.55127     24.55127 
   26500    596.89959   -2796.4869    -2863.072   -10.602399    115.93048   -376.13617    228.39849    24.551054    24.551054    24.551054 
   26600    591.92576   -2796.4887   -2862.5189    121.53004   -357.65344    817.11517   -94.871618    24.550294    24.550294    24.550294 
   26700    600.93884   -2796.4892   -2863.5249     -54.5896    337.68364   -386.82792   -114.62453    24.549346    24.549346    24.549346 
   26800    589.43135   -2796.4907   -2862.2426    425.41283    1174.3247   -35.937344     137.8511    24.548477    24.548477    24.548477 
   26900    606.95296   -2796.4908   -2864.1973     11.15995    474.25861    -274.2279   -166.55087    24.548131    24.548131    24.548131 
   27000    596.86979    -2796.492   -2863.0737    105.89383    700.28472   -1491.4832      1108.88    24.548454    24.548454    24.548454 
   27100     584.0496    -2796.486   -2861.6376    417.86811    959.59185   -143.34727    437.35974     24.55028     24.55028     24.55028 
   27200    612.14508   -2796.4815   -2864.7672   -453.16923   -223.95125    102.02199   -1237.5784    24.552314    24.552314    24.552314 
   27300    603.63847   -2796.4797   -2863.8164   -337.16947   -181.31238   -1101.9734    271.77736    24.553368    24.553368    24.553368 
   27400    616.09028   -2796.4699   -2865.1957   -641.70563   -1031.7023   -325.51735   -567.89728    24.553554    24.553554    24.553554 
   27500    605.44528   -2796.4646   -2864.0029   -289.11628   -849.84595    164.60542    -182.1083    24.552237    24.552237    24.552237 
   27600    589.28668   -2796.4595   -2862.1953    287.51658     1128.785     118.5808   -384.81606    24.550186    24.550186    24.550186 
   27700    587.57111   -2796.4492   -2861.9937    576.43459    693.76771   -206.63397      1242.17    24.548632    24.548632    24.548632 
   27800    611.76499   -2796.4458   -2864.6891    -56.11864    341.38937   -633.92422    124.17893    24.547851    24.547851    24.547851 
   27900    603.94827   -2796.4524   -2863.8237    112.94312    463.46979    -667.2875    542.64707    24.547909    24.547909    24.547909 
   28000    598.36833   -2796.4494   -2863.1983    262.22492   -1103.0698    738.53374    1151.2108    24.549674    24.549674    24.549674 
   28100    595.46791   -2796.4559   -2862.8812   -230.95437   -343.46961    314.11153   -663.50503    24.551658    24.551658    24.551658 
   28200    610.35422   -2796.4551    -2864.541   -522.91051   -856.88395   -918.81026    206.96267    24.552988    24.552988    24.552988 
   28300    581.54507   -2796.4543   -2861.3266    216.99592    -875.0309    502.91354    1023.1051    24.552823    24.552823    24.552823 
   28400    598.04054   -2796.4539   -2863.1662   -176.08067    46.672929   -466.73987   -108.17507    24.551727    24.551727    24.551727 
   28500    598.66186   -2796.4545   -2863.2362    39.148328   -45.245374   -369.14239    531.83275    24.549961    24.549961    24.549961 
   28600    599.42003   -2796.4521   -2863.3183    31.091033   -429.78656    242.22552    280.83414    24.548534    24.548534    24.548534 
   28700    619.13686   -2796.4437   -2865.5094   -405.72384    -808.3166   -767.82952    358.97461    24.547838    24.547838    24.547838 
   28800    599.28286   -2796.4437   -2863.2946    399.24946    1070.8002   -281.56855    408.51673    24.547669    24.547669    24.547669 
   28900    615.17928   -2796.4434   -2865.0676   -243.48383    414.39927   -1096.5355   -48.315195    24.549379    24.549379    24.549379 
   29000    599.29633   -2796.4377   -2863.2901   -52.609247    194.34534    114.17783   -466.35092    24.551894    24.551894    24.551894 
   29100    610.59358   -2796.4306   -2864.5432   -580.53336   -140.47821   -1268.9995   -332.12234    24.553559    24.553559    24.553559 
   29200    594.36129   -2796.4086   -2862.7105   -215.10546   -367.02991    692.35873   -970.64519    24.554375    24.554375    24.554375 
   29300    604.44639   -2796.3921    -2863.819   -331.84464   -220.69867   -76.262472   -698.57278    24.552936    24.552936    24.552936 
   29400    608.07967   -2796.3836   -2864.2158   -71.279103    59.827247   -331.84037    58.175819    24.550101    24.550101    24.550101 
   29500    605.78711    -2796.377   -2863.9535    104.52799   -645.98556    297.15755    662.41198    24.547628    24.547628    24.547628 
   29600    606.54606   -2796.3707   -2864.0318    63.383755    640.06528    762.82306   -1212.7371    24.546744    24.546744    24.546744 
   29700     585.8814   -2796.3659   -2861.7218     748.3538    1139.9646    766.62472    338.47203     24.54785     24.54785     24.54785 
   29800    596.86269   -2796.3576   -2862.9385    39.677241    -1471.243    1144.6689     445.6059    24.550697    24.550697    24.550697 
   29900    599.11234   -2796.3571   -2863.1889   -121.85269    427.70053   -280.76493   -512.49367    24.553096    24.553096    24.553096 
   30000    583.89167   -2796.3548   -2861.4888   -2.5702007    322.92469   -466.94035    136.30506    24.554637    24.554637    24.554637 
   30100    574.00066   -2796.3523    -2860.383    313.09035    382.48057    254.05358     302.7369    24.554481    24.554481    24.554481 
   30200    597.40841   -2796.3536   -2862.9954    -179.4536    154.75988   -476.85682   -216.26384     24.55288     24.55288     24.55288 
   30300    620.45632   -2796.3477   -2865.5606   -547.33719    -350.8536   -705.71798      -585.44     24.55088     24.55088     24.55088 
   30400    593.78028   -2796.3428   -2862.5799    494.72579    619.24369    581.43886    283.49483    24.549202    24.549202    24.549202 
   30500    604.45754   -2796.3388    -2863.767    175.37853    512.57062    724.61392   -711.04896    24.549067    24.549067    24.549067 
   30600    594.35649    -2796.343   -2862.6444    120.01235    196.49764    526.11059   -362.57117     24.54975     24.54975     24.54975 
   30700    586.69534    -2796.343   -2861.7897    265.42809    354.15742    1064.1867   -622.05983    24.551227    24.551227    24.551227 
   30800    584.76675    -2796.338   -2861.5696    197.20415    -603.4719     532.5559    662.52846    24.552702    24.552702    24.552702 
   30900    595.96765   -2796.3423   -2862.8234    50.077543   -720.84779    1297.4071   -426.32667    24.552884    24.552884    24.552884 
   31000    603.93765   -2796.3522   -2863.7224   -105.23004    321.19813   -1246.7469    609.85867    24.551827    24.551827    24.551827 
   31100    603.76241   -2796.3569   -2863.7075    58.227319   -94.384081    -964.4155    1233.4815    24.550532    24.550532    24.550532 
   31200    592.47462   -2796.3689   -2862.4604    278.38786    228.12308   -194.15209    801.19259    24.549015    24.549015    24.549015 
   31300    609.73227   -2796.3724   -2864.3889    93.016734   -709.25822    95.705873    892.60255    24.548649    24.548649    24.548649 
   31400    607.41884   -2796.3776   -2864.1361    68.385755   -420.57782    249.32346    376.41162    24.549096    24.549096    24.549096 
   31500     603.4911   -2796.3879   -2863.7082    68.068807   -387.41151   -176.02515    767.64308    24.549884    24.549884    24.549884 
   31600    595.89069   -2796.4003   -2862.8728    93.871997    595.72399    401.06639   -715.17439    24.550796    24.550796    24.550796 
   31700    608.24069   -2796.4029    -2864.253   -556.22094   -827.19838   -629.15875   -212.30569    24.552136    24.552136    24.552136 
   31800    596.10658   -2796.4029   -2862.8995   -120.32932    290.19119   -692.39012    41.210982    24.552165    24.552165    24.552165 
   31900    575.83653    -2796.407   -2860.6425    552.28614    203.20474    479.67114    973.98254    24.550453    24.550453    24.550453 
   32000    603.64704   -2796.4053    -2863.743   -56.734965   -348.19476   -397.73841    575.72827    24.548439    24.548439    24.548439 
   32100    585.76781   -2796.4108    -2861.754    606.52498    554.66435    707.36327    557.54733    24.546301    24.546301    24.546301 
   32200    599.74502   -2796.4127   -2863.3151    337.14842   -830.08521    794.88916    1046.6413    24.545839    24.545839    24.545839 
   32300    601.99385   -2796.4156   -2863.5689    184.43649   -446.11058    451.71999    547.70007    24.547252    24.547252    24.547252 
   32400    599.81863   -2796.4152   -2863.3259    141.66144    241.00171    671.83143   -487.84883    24.549921    24.549921    24.549921 
   32500    603.15982   -2796.4232   -2863.7066   -241.76454    85.223962   -54.942761   -755.57481    24.552164    24.552164    24.552164 
   32600    610.28957   -2796.4259   -2864.5046   -556.10305   -369.78827   -563.10082   -735.42007    24.553595    24.553595    24.553595 
   32700    586.22923   -2796.4336   -2861.8284    372.28292    933.36174   -284.46391    467.95093     24.55309     24.55309     24.55309 
   32800    601.26125     -2796.44   -2863.5116   -231.97548    720.27146   -1331.9782   -84.219648    24.551963    24.551963    24.551963 
   32900    594.88478   -2796.4347    -2862.795    108.92945    679.28469   -939.23748    586.74113    24.551118    24.551118    24.551118 
   33000    613.77643   -2796.4319   -2864.8996   -327.71934    456.69893    -651.9192   -787.93776     24.55032     24.55032     24.55032 
   33100    601.28465   -2796.4349   -2863.5091    22.941172    575.73157   -84.941689   -421.96637    24.549483    24.549483    24.549483 
   33200    600.57057   -2796.4387   -2863.4332    156.12212    459.83092    994.02923   -985.49378    24.548976    24.548976    24.548976 
   33300    617.96372   -2796.4471   -2865.3819   -360.09538   -793.48598   -1027.4245    740.62436    24.548948    24.548948    24.548948 
   33400    597.28381    -2796.456    -2863.084     147.5814   -1728.6782    1022.9142    1148.5082    24.549447    24.549447    24.549447 
   33500    598.96183   -2796.4616   -2863.2767    195.34263    148.14999    419.67732    18.200582    24.550593    24.550593    24.550593 
   33600    589.02266   -2796.4718   -2862.1782    272.30284   -210.40502    623.64901    403.66452    24.551408    24.551408    24.551408 
   33700    618.55568   -2796.4809   -2865.4817   -541.90082   -65.757179   -1064.1883   -495.75693    24.551772    24.551772    24.551772 
   33800     597.1695   -2796.4913   -2863.1065    43.339477    646.80066    250.22917    -767.0114    24.551096    24.551096    24.551096 
   33900    595.53073   -2796.4975   -2862.9299    56.110679    561.40217   -311.32302   -81.747109    24.550342    24.550342    24.550342 
   34000    593.78545   -2796.5039   -2862.7415    272.02941    411.96446   -583.76386    987.88763    24.549549    24.549549    24.549549 
   34100    613.19785   -2796.5118   -2864.9149    -236.8925   -685.84984    86.804182   -111.63183    24.549076    24.549076    24.549076 
   34200    597.43194   -2796.5235    -2863.168    83.783068   -285.54184    343.16915    193.72189    24.548536    24.548536    24.548536 
   34300    583.53844   -2796.5308   -2861.6254    513.55081     1091.246   -526.87324    976.27964     24.54871     24.54871     24.54871 
   34400    613.79475   -2796.5335   -2865.0033   -449.99399    379.66941   -145.43409   -1584.2173     24.54972     24.54972     24.54972 
   34500    592.24333   -2796.5313   -2862.5969    353.33237    553.27872   -657.57946    1164.2979    24.550775    24.550775    24.550775 
   34600    595.83926   -2796.5316   -2862.9984   -134.47196    688.21711    128.49156   -1220.1245    24.551785    24.551785    24.551785 
   34700    589.82579    -2796.528    -2862.324    220.00851    467.36569   -402.04174    594.70159    24.552594    24.552594    24.552594 
   34800    597.97379   -2796.5282   -2863.2331    -19.32298    489.70505   -805.16905    257.49505    24.552549    24.552549    24.552549 
   34900    593.86164    -2796.526   -2862.7722    12.536223    201.92698    762.93791   -927.25622    24.551922    24.551922    24.551922 
   35000    584.27856   -2796.5272   -2861.7043     200.0516    1010.1277   -793.30558    383.33271    24.550629    24.550629    24.550629 
   35100    612.57286   -2796.5241   -2864.8576   -298.56767   -306.52527    -277.5567   -311.62105    24.549371    24.549371    24.549371 
   35200    605.91328   -2796.5289   -2864.1194    117.87994    641.30845    301.02002   -588.68865    24.548088    24.548088    24.548088 
   35300    573.03064   -2796.5271   -2860.4495    848.50155    1736.2507   -670.83485    1480.0888    24.548408    24.548408    24.548408 
   35400    599.24646   -2796.5226   -2863.3695   -20.916316   -5.4666999     -203.198    145.91575    24.549981    24.549981    24.549981 
   35500    621.73462   -2796.5164   -2865.8718   -655.68311   -884.94322   -285.20804   -796.89808    24.551815    24.551815    24.551815 
   35600    596.53373   -2796.5102   -2863.0544    49.870671     67.68495    644.20082   -562.27375    24.553289    24.553289    24.553289 
   35700    614.25549   -2796.5034   -2865.0245   -627.42495   -773.70059   -1509.5546    400.98031    24.554024    24.554024    24.554024 
   35800    618.70878   -2796.4927   -2865.5106   -527.17514    50.621777   -621.74628   -1010.4009    24.553447    24.553447    24.553447 
   35900    588.38184   -2796.5003   -2862.1351    196.29847     345.2125    334.64281   -90.959902    24.551168    24.551168    24.551168 
   36000    636.89231    -2796.494   -2867.5403   -867.99755    185.54691   -1823.6443   -965.89524    24.549657    24.549657    24.549657 
   36100    590.85769    -2796.492   -2862.4031    423.19792    702.26472    557.00634     10.32271    24.548299    24.548299    24.548299 
   36200    596.27495   -2796.4814   -2862.9967    220.30351    742.64549   -565.61506     483.8801    24.548617    24.548617    24.548617 
   36300    577.85242   -2796.4729   -2860.9332     744.9212     261.4518    1212.8333    760.47851    24.549824    24.549824    24.549824 
   36400    610.13821   -2796.4698   -2864.5317   -397.76126   -1283.0512    290.11801    -200.3506    24.551467    24.551467    24.551467 
   36500    589.16231   -2796.4616   -2862.1835    286.89265     641.1525    99.968178    119.55727    24.552632    24.552632    24.552632 
   36600     588.6694   -2796.4594   -2862.1263    76.425911    824.88292   -576.88485   -18.720336    24.552542    24.552542    24.552542 
   36700     599.6587   -2796.4589   -2863.3518    61.116618   -245.44505    823.89619   -395.10128    24.551391    24.551391    24.551391 
   36800    586.62253   -2796.4585   -2861.8971    514.14066   -304.24022    1393.3306    453.33162    24.550036    24.550036    24.550036 
   36900    590.93757   -2796.4614   -2862.3814    475.85507    2.0086605    1263.6699    161.88665    24.549168    24.549168    24.549168 
   37000    615.69074   -2796.4577    -2865.139    -224.7562   -166.50672   -284.60967    -223.1522    24.549506    24.549506    24.549506 
   37100    593.67563   -2796.4603   -2862.6858    143.03846   -256.17018    575.82743    109.45812    24.550707    24.550707    24.550707 
   37200    593.61474   -2796.4531   -2862.6717   -99.519557    167.22078   -617.81508    152.03562    24.552605    24.552605    24.552605 
   37300    612.47505   -2796.4484   -2864.7709   -520.06305   -945.71265   -379.08542   -235.39107    24.553571    24.553571    24.553571 
   37400    599.87462   -2796.4496   -2863.3665   -230.38774    -1010.929    72.649174     247.1166    24.553126    24.553126    24.553126 
   37500    591.10053   -2796.4469   -2862.3851    81.727427   -429.82175    153.39079    521.61323    24.551656    24.551656    24.551656 
   37600    586.00854   -2796.4379    -2861.808    484.81812   -488.89419    734.15051     1209.198    24.550046    24.550046    24.550046 
   37700    599.86046   -2796.4385   -2863.3539    10.367849    -355.2514    590.81916   -204.46422    24.548943    24.548943    24.548943 
   37800    589.22166   -2796.4422   -2862.1708    449.73262    1154.5728    779.49479   -584.86977    24.548415    24.548415    24.548415 
   37900    602.71416   -2796.4433    -2863.677    178.87404    321.13679    114.64097    100.84437    24.548981    24.548981    24.548981 
   38000     613.2735   -2796.4496   -2864.8611   -344.15083   -1222.4971    1334.3228   -1144.2782    24.550357    24.550357    24.550357 
   38100    577.08396   -2796.4579   -2860.8325    623.75607    1074.2042    428.67487    368.38913    24.551565    24.551565    24.551565 
   38200    595.82404   -2796.4601   -2862.9252   -137.89898    126.60947   -143.91989   -396.38651    24.552812    24.552812    24.552812 
   38300    611.91147   -2796.4639   -2864.7236   -562.60412   -1588.9301     -577.352    478.46977    24.552927    24.552927    24.552927 
   38400    602.66687   -2796.4646    -2863.693   -170.17922   -37.144572   -98.644332   -374.74875    24.551854    24.551854    24.551854 
   38500    609.33188    -2796.468   -2864.4399   -279.25466   -543.56842   -461.01423    166.81869    24.550154    24.550154    24.550154 
   38600    595.23117   -2796.4709   -2862.8699    315.69712    153.76242    106.31762    687.01132    24.548633    24.548633    24.548633 
   38700    612.16663   -2796.4748   -2864.7629   -24.394118   -110.83171   -675.93951    713.58886    24.548097    24.548097    24.548097 
   38800       601.44   -2796.4842   -2863.5758    340.10795    833.51412    417.81204   -231.00229    24.548481    24.548481    24.548481 
   38900    599.38729   -2796.4875   -2863.3501   -26.428935     395.1128   -149.54405   -324.85555     24.55033     24.55033     24.55033 
   39000    604.07516   -2796.4876   -2863.8731   -301.81594   -1321.6914   -125.52668    541.77025    24.552429    24.552429    24.552429 
   39100    594.60208   -2796.4857   -2862.8145   -123.88519     786.7408    -784.2794   -374.11696    24.553458    24.553458    24.553458 
   39200    603.54532   -2796.4876    -2863.814   -407.68099    30.878332   -1949.6703    695.74905    24.552856    24.552856    24.552856 
   39300     583.2839   -2796.4826   -2861.5488    422.88617    670.34466    245.50891    352.80495    24.551066    24.551066    24.551066 
   39400    596.81306   -2796.4782   -2863.0536    168.55104     1603.624   -1657.2893     559.3184    24.549143    24.549143    24.549143 
   39500     608.7804   -2796.4752   -2864.3856   -20.851855     517.3508   -1039.8853    459.97893    24.547904    24.547904    24.547904 
   39600      594.597   -2796.4811   -2862.8093    347.40218    496.67481   -186.68087     732.2126    24.547483    24.547483    24.547483 
   39700     577.8553   -2796.4882   -2860.9488    713.89897    1717.2933    128.41858    295.98502    24.548372    24.548372    24.548372 
   39800    625.14333   -2796.4922   -2866.2279   -842.28573   -305.40327   -1639.6037    -581.8502    24.550425    24.550425    24.550425 
   39900    596.08102   -2796.5018   -2862.9955   -18.187167   -601.04291    622.00321   -75.521805    24.551182    24.551182    24.551182 
   40000    601.74008   -2796.5012   -2863.6262   -217.52352   -748.12429     1131.785   -1036.2313      24.5516      24.5516      24.5516 
   40100    587.23359   -2796.4978   -2862.0046    116.56641    622.50229   -18.943045   -253.86001    24.551013    24.551013    24.551013 
   40200    592.07888   -2796.4911   -2862.5384    218.80471    901.89996   -226.86832    -18.61751    24.550206    24.550206    24.550206 
   40300    599.11315   -2796.4899   -2863.3219   -81.946004    491.50856   -355.34961   -381.99697    24.549404    24.549404    24.549404 
   40400    596.07348   -2796.4882   -2862.9811     251.8221    1049.1151    236.15273   -529.80156    24.549197    24.549197    24.549197 
   40500    615.84867   -2796.4856   -2865.1844    -429.8646   -360.34315   -471.17172   -458.07894    24.549918    24.549918    24.549918 
   40600    583.21583   -2796.4792   -2861.5378    421.34667   -37.324591   -115.53813    1416.9027    24.550984    24.550984    24.550984 
   40700    602.00495   -2796.4786   -2863.6332   -219.29244   -819.55148    47.733962    113.94019    24.551518    24.551518    24.551518 
   40800    591.36476   -2796.4773   -2862.4449     40.75078    518.39511   -1535.9465    1139.8038    24.551372    24.551372    24.551372 
   40900    596.82642   -2796.4757   -2863.0526    117.70015     309.4489    270.55668   -226.90513    24.550582    24.550582    24.550582 
   41000    591.88929   -2796.4708   -2862.4969    190.71731    349.99113    529.51628   -307.35548     24.54994     24.54994     24.54994 
   41100    605.58263   -2796.4655   -2864.0191      121.884   -841.84085    138.17877    1069.3141    24.549743    24.549743    24.549743 
   41200    608.62028   -2796.4688   -2864.3613   -24.403554   -791.23836   -283.70528     1001.733      24.5501      24.5501      24.5501 
   41300    595.44992   -2796.4693   -2862.8927    90.191813   -181.65156   -204.72486    656.95186    24.551394    24.551394    24.551394 
   41400    607.87126   -2796.4647   -2864.2736   -380.44118   -1002.2529    592.62851   -731.69915    24.553134    24.553134    24.553134 
   41500    601.53336   -2796.4676   -2863.5695   -109.80308    109.08519    211.39567   -649.89011    24.553822    24.553822    24.553822 
   41600    590.19959   -2796.4661   -2862.3038   -24.626572    553.73274    -891.4786    263.86615    24.554069    24.554069    24.554069 
   41700    607.42799   -2796.4628   -2864.2223   -183.28701   -424.53229    68.266556   -193.59531    24.553318    24.553318    24.553318 
   41800    604.31577   -2796.4626    -2863.875    81.537563   -42.296373    572.61032   -285.70125    24.551964    24.551964    24.551964 
   41900    610.41628   -2796.4598   -2864.5527    -104.8243   -379.54307    318.95382   -253.88366    24.551011    24.551011    24.551011 
   42000    613.44828   -2796.4557   -2864.8867   -312.61202    62.333966   -79.799868   -920.37017     24.55067     24.55067     24.55067 
   42100     592.7782   -2796.4552   -2862.5805     311.3037    490.76134     34.16042    408.98935    24.550568    24.550568    24.550568 
   42200     601.5805   -2796.4588    -2863.566   -40.568721     255.5112    621.66925   -998.88662    24.550893    24.550893    24.550893 
   42300    616.27019   -2796.4578   -2865.2037   -328.99641   -67.634005     17.29512   -936.65033    24.551583    24.551583    24.551583 
   42400    617.51414   -2796.4544    -2865.339   -518.83522   -1085.3207    416.57305   -887.75803    24.552254    24.552254    24.552254 
   42500    602.75484   -2796.4587    -2863.697   -212.35241   -153.05347   -664.00014    179.99638     24.55207     24.55207     24.55207 
   42600    599.21954   -2796.4528   -2863.2967   -21.589505   -230.52495    746.89606   -581.13963    24.552122    24.552122    24.552122 
   42700    596.82361   -2796.4465    -2863.023   -126.69202   -769.03905    312.93775    76.025241    24.551954    24.551954    24.551954 
   42800    611.25881   -2796.4397   -2864.6265   -388.22022   -474.72816    423.21426   -1113.1468    24.551482    24.551482    24.551482 
   42900    585.46564   -2796.4416   -2861.7512    476.07007    552.14945    1295.3175   -419.25673    24.549833    24.549833    24.549833 
   43000    605.07713   -2796.4341   -2863.9314    1.2563418   -67.885498   -55.005629    126.66015    24.549219    24.549219    24.549219 
   43100    621.51607    -2796.423    -2865.754   -443.25174    658.50492   -665.37352   -1322.8866    24.549514    24.549514    24.549514 
   43200    581.33649   -2796.4232   -2861.2721    467.46741    610.27525    1117.6752   -325.54818    24.549634    24.549634    24.549634 
   43300    615.03256   -2796.4195   -2865.0273   -448.62349   -675.90513   -510.32432   -159.64103    24.550213    24.550213    24.550213 
   43400    621.72272   -2796.4197   -2865.7738   -445.65572   -448.82796   -775.56739   -112.57182    24.550511    24.550511    24.550511 
   43500    592.79423   -2796.4247   -2862.5518    117.55568   -175.68325    699.59642   -171.24614    24.550527    24.550527    24.550527 
   43600    606.25692   -2796.4219   -2864.0507   -233.74936    43.333495   -78.850216   -665.73135     24.55103     24.55103     24.55103 
   43700     581.3065   -2796.4187   -2861.2643    528.04432    70.917914     1310.614    202.60106    24.551687    24.551687    24.551687 
   43800    607.91168   -2796.4228   -2864.2363   -309.45081   -501.37271   -180.46746   -246.51226    24.552029    24.552029    24.552029 
   43900    566.81879   -2796.4273   -2859.6568    776.34468   -547.59868     2041.052     835.5807    24.551678    24.551678    24.551678 
   44000     605.6665   -2796.4265   -2863.9895   -224.06484   -1131.6845    1543.6135   -1084.1235    24.551666    24.551666    24.551666 
   44100    597.76338   -2796.4326    -2863.114    126.58522    332.96217    557.12425   -510.33075    24.550979    24.550979    24.550979 
   44200    625.23108   -2796.4349   -2866.1804   -518.83995   -1393.6079    750.88481   -913.79676    24.550673    24.550673    24.550673 
   44300    581.94357    -2796.442   -2861.3587    630.50155    1235.4444    1471.2474   -815.18713    24.550242    24.550242    24.550242 
   44400     592.8362   -2796.4543    -2862.586    204.14156    332.41141     688.0569   -408.04364    24.550287    24.550287    24.550287 
   44500    616.18141   -2796.4616   -2865.1976   -348.23118   -1547.7992    917.71555   -414.60992    24.550913    24.550913    24.550913 
   44600    600.26568   -2796.4738   -2863.4344   -207.62075   -791.80419    476.59407   -307.65212    24.551076    24.551076    24.551076 
   44700    609.40199   -2796.4789   -2864.4586    -250.8529   -710.27096    130.93409   -173.22183    24.551079    24.551079    24.551079 
   44800    617.01743   -2796.4838    -2865.313   -459.28604   -1.1990595   -998.29939   -378.35967    24.550601    24.550601    24.550601 
   44900    607.91356   -2796.4896   -2864.3032   -149.58731   -688.99559   -1033.9092    1274.1428    24.549973    24.549973    24.549973 
   45000    595.42844   -2796.4956   -2862.9165   -41.596298   -126.26381    -182.1051    183.58001    24.549263    24.549263    24.549263 
   45100    594.34039   -2796.4975   -2862.7971    178.95528   -875.33904   -31.710635    1443.9155    24.548739    24.548739    24.548739 
   45200    608.17138   -2796.4942   -2864.3367   -66.271838    219.74272   -79.441699   -339.11654    24.549125    24.549125    24.549125 
   45300    605.68915   -2796.4954    -2864.061   -123.48764   -611.27559    370.90296   -130.09028    24.549696    24.549696    24.549696 
   45400    603.95511   -2796.4968   -2863.8689   -43.017296   -810.91889    31.208819    650.65819    24.550525    24.550525    24.550525 
   45500    580.68959   -2796.5019   -2861.2787    548.60894    160.81931   -288.61505    1773.6226    24.551252    24.551252    24.551252 
   45600    599.93657   -2796.4991   -2863.4229   -144.16893   -186.02518   -321.22122    74.739613    24.552321    24.552321    24.552321 
   45700    580.36628   -2796.4933   -2861.2341      329.517    839.30493    68.434824    80.811254    24.552634    24.552634    24.552634 
   45800    584.25771   -2796.4864   -2861.6613    194.60419   -1413.5889    477.84299    1519.5585    24.552309    24.552309    24.552309 
   45900    578.98562   -2796.4815   -2861.0682    424.28075   -434.37859    486.77882     1220.442     24.55124     24.55124     24.55124 
   46000    607.33083   -2796.4751   -2864.2238    51.927399   -332.21388   -210.90693    698.90301    24.550056    24.550056    24.550056 
   46100    563.30516   -2796.4739   -2859.3115    1140.1064   -53.393091    1961.7478    1511.9645    24.549093    24.549093    24.549093 
   46200    612.38568   -2796.4677   -2864.7803   -330.11061   -1520.4392    892.06661   -361.95923    24.549709    24.549709    24.549709 
   46300    596.76079   -2796.4633   -2863.0329    142.28612   -166.69575    294.60975    298.94435    24.550306    24.550306    24.550306 
   46400    608.46792   -2796.4586   -2864.3341   -444.93251   -1124.4915    257.31326   -467.61931    24.551039    24.551039    24.551039 
   46500    582.24114   -2796.4447   -2861.3946    378.13769    550.25194    747.23474   -163.07362    24.551423    24.551423    24.551423 
   46600    603.98871   -2796.4316   -2863.8075   -284.44241    47.771037   -618.02286   -283.07541    24.551751    24.551751    24.551751 
   46700     604.1878   -2796.4261   -2863.8241   -220.57685   -1212.1235    397.50969    152.88325    24.551156    24.551156    24.551156 
   46800     610.3714     -2796.42   -2864.5078   -195.74497    133.74665    439.12732   -1160.1089    24.550147    24.550147    24.550147 
   46900    579.59006   -2796.4107   -2861.0649     453.8063   -29.157213    580.37193     810.2042    24.549273    24.549273    24.549273 
   47000    589.57382   -2796.3986   -2862.1665     420.8036   -91.706924    1054.1277       299.99    24.548987    24.548987    24.548987 
   47100    610.24825   -2796.3969    -2864.471   -79.881261   -6.9947464    334.73198   -567.38102    24.549091    24.549091    24.549091 
   47200    613.31454   -2796.3957   -2864.8118   -45.353726    163.73223    187.81418   -487.60759    24.550139    24.550139    24.550139 
   47300    595.55322   -2796.4004   -2862.8353    304.77651    1346.0111    319.17202   -750.85354    24.551612    24.551612    24.551612 
   47400    585.61084    -2796.403   -2861.7288    82.399132   -107.14764     1526.323    -1171.978    24.553303    24.553303    24.553303 
   47500     601.2501    -2796.397   -2863.4673   -218.49216   -1190.6667    455.14916    80.041037    24.554504    24.554504    24.554504 
   47600    601.15073   -2796.3999   -2863.4591   -542.16877    111.13559    -270.2259    -1467.416    24.553758    24.553758    24.553758 
   47700    571.38687   -2796.3915   -2860.1305    672.58148    951.62625    870.55314    195.56504     24.55183     24.55183     24.55183 
   47800    602.45889   -2796.3831   -2863.5883     12.83582   -1014.4554    477.16614    575.79672     24.54967     24.54967     24.54967 
   47900     586.2407   -2796.3822   -2861.7782    632.51374    48.837297    330.90934    1517.7946    24.547916    24.547916    24.547916 
   48000    596.22926   -2796.3828   -2862.8931    346.47289    827.46656    568.90312   -356.95101    24.547998    24.547998    24.547998 
   48100    614.77847   -2796.3784   -2864.9578   -360.70959   -203.45951   -466.36921   -412.30004    24.549704    24.549704    24.549704 
   48200    580.68455   -2796.3767   -2861.1529    456.68159    833.99186    436.54071    99.512204    24.551472    24.551472    24.551472 
   48300    597.04819   -2796.3768   -2862.9784   -69.098258   -419.67588    811.86274   -599.48163    24.553233    24.553233    24.553233 
   48400    598.70165   -2796.3785   -2863.1646   -283.65106   -539.48978   -390.26005     78.79665    24.553879    24.553879    24.553879 
   48500    607.38542   -2796.3901   -2864.1448    -398.4911    378.48895   -798.51492   -775.44733    24.552473    24.552473    24.552473 
   48600    598.99935   -2796.3933   -2863.2125    180.46526    586.10731    193.73368   -238.44519    24.550407    24.550407    24.550407 
   48700     599.8277    -2796.402   -2863.3137    135.51537    389.54958     584.7504   -567.75387    24.548238    24.548238    24.548238 
   48800    598.01375   -2796.4049   -2863.1142    299.12722    1351.0129    -151.7558   -301.87539    24.547179    24.547179    24.547179 
   48900    599.37778   -2796.4049   -2863.2664    338.98778   -26.171234    397.70001    645.43458    24.547703    24.547703    24.547703 
   49000    589.54585   -2796.4106   -2862.1753    159.08079    88.936647    1002.4528   -614.14708    24.549421    24.549421    24.549421 
   49100    602.35009   -2796.4061   -2863.5992   -57.975011    588.13446   -925.59781    163.53832    24.551926    24.551926    24.551926 
   49200    604.30851   -2796.4063   -2863.8178   -278.01065   -343.72396   -69.021767   -421.28623    24.553705    24.553705    24.553705 
   49300    609.52448   -2796.4107   -2864.4041     -514.334    -720.8954    106.15202   -928.25863    24.553893    24.553893    24.553893 
   49400    584.83783   -2796.4172   -2861.6567    100.40656    -297.3833   -33.395535     631.9985    24.552283    24.552283    24.552283 
   49500     594.5583   -2796.4215   -2862.7454    139.99428    325.40913    515.33612    -420.7624    24.549879    24.549879    24.549879 
   49600    598.91189    -2796.422   -2863.2315    259.51763    259.99114    69.578749      448.983    24.547785    24.547785    24.547785 
   49700    590.68467   -2796.4273   -2862.3191    577.51964    5.3766227    920.68553    806.49675    24.546804    24.546804    24.546804 
   49800    617.01185   -2796.4356   -2865.2642   -119.91646   -1175.6206    512.19517      303.676    24.547903    24.547903    24.547903 
   49900    610.27652   -2796.4444   -2864.5217   -26.222531   -305.85811   -132.37236    359.56288    24.550493    24.550493    24.550493 
   50000    606.22247   -2796.4613   -2864.0863   -342.11292   -750.80647   -124.97261   -150.55968    24.552754    24.552754    24.552754 
   50100    593.33686   -2796.4732   -2862.6609   -219.91828    462.92657   -1571.0241    448.34272    24.554065    24.554065    24.554065 
   50200    589.39898   -2796.4826   -2862.2309    8.0311857    -237.1648    587.65824   -326.39988    24.553618    24.553618    24.553618 
   50300    596.38618   -2796.4876   -2863.0154    -66.60567     444.0603    25.445617   -669.32293    24.552215    24.552215    24.552215 
   50400    595.85713   -2796.4957   -2862.9644    218.54817    745.58588    470.99405   -560.93543    24.550177    24.550177    24.550177 
   50500    613.65414   -2796.5009   -2864.9549   -134.49205   -38.884897    765.85717   -1130.4484    24.548725    24.548725    24.548725 
   50600    608.70899   -2796.5062   -2864.4086   -123.85161     1094.206   -788.33974   -677.42107    24.548111    24.548111    24.548111 
   50700    615.27934   -2796.5071   -2865.1424   -295.28519    153.39059    35.031467   -1074.2776    24.548729    24.548729    24.548729 
   50800    597.68954   -2796.5065   -2863.1796    113.74649    497.03629     94.13489    -249.9317     24.55007     24.55007     24.55007 
   50900    608.22175   -2796.5047   -2864.3527   -440.81123   -72.989308   -696.72657   -552.71781    24.551363    24.551363    24.551363 
   51000    584.24669   -2796.5044    -2861.678    43.842242   -912.67508   -111.57501    1155.7768    24.551454    24.551454    24.551454 
   51100    592.63129    -2796.498   -2862.6069     91.05951   -535.23182    590.17849    218.23186    24.550917    24.550917    24.550917 
   51200    607.45162   -2796.4979   -2864.2601   -144.95259    723.53125   -683.61002     -474.779     24.55014     24.55014     24.55014 
   51300     611.4127   -2796.4998   -2864.7038   -126.81011   -141.07627   -483.52159    244.16752    24.549636    24.549636    24.549636 
   51400    605.81168   -2796.5004   -2864.0796    1.8330873    314.55789    227.03201   -536.09064    24.549679    24.549679    24.549679 
   51500    607.54641    -2796.502   -2864.2747   -190.99022    217.47506   -117.95876   -672.48696    24.550358    24.550358    24.550358 
   51600    592.43413   -2796.5026   -2862.5895    44.104059   -35.165915    352.30369    -184.8256    24.551497    24.551497    24.551497 
   51700    588.98441   -2796.5043   -2862.2064    211.62709    260.42173    522.02043    -147.5609    24.552151    24.552151    24.552151 
   51800    607.26905   -2796.5049   -2864.2466   -459.43681     872.2818   -1804.8382   -445.75404    24.552151    24.552151    24.552151 
   51900    606.20831   -2796.5015   -2864.1249   -321.44639    587.75496   -686.47809   -865.61603    24.551286    24.551286    24.551286 
   52000    573.56161   -2796.5048   -2860.4865    651.91089     935.6808    885.72181    134.33005    24.549462    24.549462    24.549462 
   52100    602.26659   -2796.5021   -2863.6859   -120.58189   -481.84537   -132.12432    252.22401    24.548056    24.548056    24.548056 
   52200    596.39014   -2796.5006   -2863.0288    182.12868    322.25779   -822.66173      1046.79    24.547111    24.547111    24.547111 
   52300    600.21701   -2796.4947   -2863.4498    164.94787   -106.61151   -191.23015    792.68527    24.547364    24.547364    24.547364 
   52400    588.80737   -2796.4904   -2862.1727    343.07421    1098.4117     543.8745   -613.06356    24.548804    24.548804    24.548804 
   52500     609.1562    -2796.486   -2864.4383   -299.00853   -85.267915   -1244.6004    432.84273     24.55084     24.55084     24.55084 
   52600    589.13095   -2796.4804   -2862.1989     196.9388   -174.91931    186.47078    579.26492    24.552488    24.552488    24.552488 
   52700     609.0903   -2796.4813   -2864.4263   -435.12717   -466.54323   -64.936842   -773.90143     24.55324     24.55324     24.55324 
   52800    602.25815   -2796.4765   -2863.6593   -389.68952   -384.06406   -1496.2983    711.29381    24.553096    24.553096    24.553096 
   52900    586.28483   -2796.4745   -2861.8755    186.84909   -124.80046   -28.080134    713.42787    24.551581    24.551581    24.551581 
   53000    601.93999   -2796.4728   -2863.6201   0.96451045    1103.2635   -276.27726   -824.09274    24.549338    24.549338    24.549338 
   53100    607.86356   -2796.4662   -2864.2743    245.95729    802.89121   -1003.6489    938.62952    24.547693    24.547693    24.547693 
   53200    622.63193   -2796.4593   -2865.9149   -304.30296    318.26786   -270.29088   -960.88586    24.547552    24.547552    24.547552 
   53300    592.95991   -2796.4525    -2862.598    261.82947   -221.64121    904.71142    102.41821    24.548407    24.548407    24.548407 
   53400    604.27415   -2796.4471   -2863.8548   -215.27744   -439.46035    510.63344   -717.00543    24.550057    24.550057    24.550057 
   53500    614.38655   -2796.4481   -2864.9839   -373.59538    382.90295   -418.64569   -1085.0434    24.551278    24.551278    24.551278 
   53600    583.54863   -2796.4488   -2861.5445    424.69287    457.30763    261.35144    555.41953    24.552277    24.552277    24.552277 
   53700    606.36503   -2796.4465   -2864.0874   -330.52095     267.2436   -1018.9218   -239.88464     24.55315     24.55315     24.55315 
   53800    580.73651    -2796.444    -2861.226    244.37184    512.83529   -125.23508    345.51532    24.553384    24.553384    24.553384 
   53900    591.23083   -2796.4462   -2862.3989   -29.044961   -47.073054    162.49193   -202.55376    24.552507    24.552507    24.552507 
   54000    598.09743   -2796.4446   -2863.1633    48.226885    -133.2025   -294.17189    572.05505    24.550775    24.550775    24.550775 
   54100     593.8801   -2796.4436   -2862.6918    183.14336    683.32294   -23.141329   -110.75153    24.548905    24.548905    24.548905 
   54200    616.70696   -2796.4418   -2865.2363   -55.621859    878.76746   -114.59434    -931.0387     24.54756     24.54756     24.54756 
   54300    598.67997   -2796.4518   -2863.2355    420.44552    210.94103    642.19152      408.204    24.546984    24.546984    24.546984 
   54400    589.06713   -2796.4592   -2862.1705    375.06484     665.6613    207.59486    251.93835    24.548395    24.548395    24.548395 
   54500    591.79604   -2796.4609   -2862.4766     42.69543     412.8416   -174.37296   -110.38235    24.550986    24.550986    24.550986 
   54600    600.80833   -2796.4668   -2863.4878   -221.75366   -297.86714   -364.22337   -3.1704671    24.552796    24.552796    24.552796 
   54700     615.7961   -2796.4748   -2865.1678   -462.71858   -45.531354   -256.39382   -1086.2306     24.55324     24.55324     24.55324 
   54800    593.27963   -2796.4819   -2862.6631     102.5257    820.94878    167.92514   -681.29683    24.552712    24.552712    24.552712 
   54900    613.23777   -2796.4842   -2864.8918   -408.59063    456.69535   -933.37461   -749.09263    24.551776    24.551776    24.551776 
   55000    591.85453   -2796.4838    -2862.506    381.52795      777.142    703.75394   -336.31211    24.550458    24.550458    24.550458 
   55100    595.02534   -2796.4841   -2862.8601    92.783115    628.88443    -171.8112   -178.72389    24.549577    24.549577    24.549577 
   55200    604.04613   -2796.4758   -2863.8581    86.079047    58.280423    204.18144   -4.2247186    24.549435    24.549435    24.549435 
   55300    597.58084   -2796.4698   -2863.1308    336.90683   -380.93943    1216.8648    174.79514    24.550094    24.550094    24.550094 
   55400    591.65511   -2796.4702   -2862.4702    202.87775    852.02258   -235.84615    -7.543172     24.55132     24.55132     24.55132 
   55500    577.56573   -2796.4677    -2860.896    410.19172    430.20683    953.63999   -153.27167    24.552834    24.552834    24.552834 
[...]
   86600    596.86539   -2796.4744   -2863.0556     258.5098   -208.22444     252.3818    731.37203    24.549671    24.549671    24.549671 
   86700    606.54984   -2796.4631   -2864.1247   -100.64506   -586.44618   -808.01778    1092.5288    24.550299    24.550299    24.550299 
   86800    594.41272   -2796.4599   -2862.7676    134.16252    364.37533   -386.48024    424.59247    24.550737    24.550737    24.550737 
   86900    586.26314   -2796.4586   -2861.8571     479.2495    770.32333    339.98194    327.44321    24.551217    24.551217    24.551217 
   87000    594.32892   -2796.4649   -2862.7632    108.97094    418.15011    87.768433   -179.00571    24.551906    24.551906    24.551906 
   87100    592.39061   -2796.4646   -2862.5467    82.134853   -350.80653    236.41996    360.79114    24.552829    24.552829    24.552829 
   87200    617.93498   -2796.4549   -2865.3865   -516.37411   -189.60811    -998.8936   -360.62061    24.553677    24.553677    24.553677 
   87300     624.8677   -2796.4478   -2866.1527   -839.60101   -1449.0551   -980.88436   -88.863606    24.553671    24.553671    24.553671 
   87400    576.98861   -2796.4466   -2860.8106    518.54863    1020.4852    179.95494    355.20573    24.552204    24.552204    24.552204 
   87500    584.49372   -2796.4432   -2861.6444    326.53411   -10.170152    197.85773    791.91477    24.550403    24.550403    24.550403 
   87600    594.52459   -2796.4441   -2862.7642    263.90036    128.49561    109.47528    553.73021    24.548417    24.548417    24.548417 
   87700    610.85384   -2796.4349   -2864.5765   -7.7480505    555.41649   -458.97884    -119.6818    24.548222    24.548222    24.548222 
   87800    620.94967   -2796.4328   -2865.7007   -482.02914   -842.05997   -204.14568   -399.88177    24.549029    24.549029    24.549029 
   87900    591.20197   -2796.4317   -2862.3812    89.742557    581.94862    410.65595    -723.3769    24.550201    24.550201    24.550201 
   88000    612.02307   -2796.4283   -2864.7004   -374.88252    406.58707   -368.20783   -1163.0268    24.551446    24.551446    24.551446 
   88100    595.03529   -2796.4332   -2862.8103     143.7985   -146.12068    179.49959    398.01658    24.551568    24.551568    24.551568 
   88200    597.96731   -2796.4319    -2863.136     105.4277   -258.23291    841.46119   -266.94517    24.551706    24.551706    24.551706 
   88300    580.48935    -2796.429   -2861.1835    301.33761    58.900523    38.942759    806.16955    24.551735    24.551735    24.551735 
   88400     615.1254   -2796.4203   -2865.0385    -407.9055   -492.15935    -294.0605   -437.49665    24.551498    24.551498    24.551498 
   88500    583.02745   -2796.4243   -2861.4619    479.26184    1423.5787   -167.67483    181.88164    24.549976    24.549976    24.549976 
   88600    613.70969    -2796.428   -2864.8882   -233.59086   -504.88956    -143.7372    -52.14583    24.548792    24.548792    24.548792 
   88700     606.4565   -2796.4293   -2864.0805    1.7621714    95.037243   -977.12152    887.37079    24.548434    24.548434    24.548434 
   88800    604.07831   -2796.4372   -2863.8231   -35.022592    205.03546    217.02845   -527.13168    24.548872    24.548872    24.548872 
   88900     589.8801   -2796.4401   -2862.2422    231.78827    -70.62057    -22.05218    788.03755    24.550521    24.550521    24.550521 
   89000      607.688   -2796.4391   -2864.2276   -188.53915    458.36861   -341.08411   -682.90194    24.552636    24.552636    24.552636 
   89100    634.42866   -2796.4395    -2867.211   -1237.3406   -151.24214   -2413.4635   -1147.3161    24.554014    24.554014    24.554014 
   89200    579.95325   -2796.4412   -2861.1359    334.52973    1021.0628    43.561159   -61.034743    24.553531    24.553531    24.553531 
   89300    593.79555   -2796.4377   -2862.6764   -26.597514    1280.5431   -43.142647    -1317.193    24.552531    24.552531    24.552531 
   89400    599.79302   -2796.4278   -2863.3356   -107.86336   -460.88593    26.221174    111.07466    24.551345    24.551345    24.551345 
   89500    595.11707   -2796.4164   -2862.8026    156.52496   -19.505429    301.55262    187.52769    24.550372    24.550372    24.550372 
   89600    606.40041   -2796.4073   -2864.0522   -1.4345792   -102.20778   -362.35981    460.26385    24.549836    24.549836    24.549836 
   89700    594.29446   -2796.4022   -2862.6966    313.57329    866.60647      610.332    -536.2186    24.549719    24.549719    24.549719 
   89800    600.74763   -2796.4007    -2863.415    149.25504    609.18476   -1095.1505    933.73086    24.550094    24.550094    24.550094 
   89900    607.53191   -2796.4045   -2864.1756   -139.76422   -178.86317    -708.3707    467.94123    24.550742    24.550742    24.550742 
   90000    608.04069   -2796.4097   -2864.2376   -163.54556   -746.26166    419.84334   -164.21837    24.551563    24.551563    24.551563 
   90100    586.89234   -2796.4144   -2861.8831    170.19456     222.4004   -381.48548    669.66875    24.552578    24.552578    24.552578 
   90200    630.23944   -2796.4177   -2866.7218   -871.78387   -1062.6553   -983.88787   -568.80845    24.553368    24.553368    24.553368 
   90300    635.43293   -2796.4244   -2867.3079   -942.93179   -1128.7572   -444.87579   -1255.1623    24.553331    24.553331    24.553331 
   90400     617.2674   -2796.4295   -2865.2866   -504.68476   -1071.4794    439.51913   -882.09407    24.552561    24.552561    24.552561 
   90500     586.7549   -2796.4475   -2861.9009    359.99063   -251.20582    341.42796    989.74974    24.550499    24.550499    24.550499 
   90600    610.52424   -2796.4513   -2864.5562   -133.80737   -683.40391   -167.87312    449.85492    24.549782    24.549782    24.549782 
   90700    615.67946   -2796.4578   -2865.1378   -254.53576     -1022.17    151.98743    106.57525    24.549728    24.549728    24.549728 
   90800    594.02353   -2796.4688   -2862.7331    121.67598    702.32989   -735.50519    398.20325     24.55039     24.55039     24.55039 
   90900    606.35974   -2796.4716    -2864.112   -322.97456   -242.25632   -397.33189   -329.33548     24.55175     24.55175     24.55175 
   91000    601.37977   -2796.4747   -2863.5596     181.7467   -365.06057    618.54704    291.75364    24.552436    24.552436    24.552436 
   91100    598.98511   -2796.4795   -2863.2972   -150.30654    145.35565   -1449.8126    853.53731    24.552987    24.552987    24.552987 
   91200    598.51351    -2796.482   -2863.2471    -201.6273    942.01781   -760.38719   -786.51254     24.55275     24.55275     24.55275 
   91300    588.81163   -2796.4839   -2862.1667     222.3923     670.4745    499.62133   -502.91893     24.55123     24.55123     24.55123 
   91400    603.97416   -2796.4828    -2863.857   -168.86927    684.78951   -864.81383   -326.58348    24.549569    24.549569    24.549569 
   91500    597.52677   -2796.4748   -2863.1298    324.39268     1571.694    -1026.637    428.12113    24.548351    24.548351    24.548351 
   91600    590.98033    -2796.478   -2862.4027    553.49633    353.39029    291.27892    1015.8198    24.547439    24.547439    24.547439 
   91700    615.25544   -2796.4798   -2865.1125   -253.31587    590.03775   -717.26233   -632.72303    24.548204    24.548204    24.548204 
   91800    594.89065   -2796.4831   -2862.8441    180.58313    594.48061     130.8535   -183.58473    24.549955    24.549955    24.549955 
   91900     597.6056   -2796.4874   -2863.1512   -87.225905   -741.08951   -169.83921      649.251    24.551835    24.551835    24.551835 
   92000    601.62683   -2796.4864   -2863.5988   -281.18836   -707.80313   -76.321346     -59.4406    24.553306    24.553306    24.553306 
   92100    598.81966   -2796.4817    -2863.281   -66.493145    589.62857   -1157.0952     367.9872    24.553585    24.553585    24.553585 
   92200    599.99583    -2796.481   -2863.4114   -64.304608    1000.6453   -1014.4711   -179.08799    24.552404    24.552404    24.552404 
   92300    607.29141   -2796.4873   -2864.2316   -156.90573    809.97563   -660.66599   -620.02681    24.550248    24.550248    24.550248 
   92400    596.28668   -2796.4895   -2863.0062    253.56875    458.21853    72.779707    229.70802    24.548407    24.548407    24.548407 
   92500    607.12561   -2796.4909   -2864.2167   -150.37292    555.25288   -173.36906   -833.00257    24.547574    24.547574    24.547574 
   92600    592.81423   -2796.4928   -2862.6221    429.25942     1205.474   -394.67068    476.97497    24.547778    24.547778    24.547778 
   92700    583.03265    -2796.498   -2861.5362    430.10766    272.57386    80.498081    937.25105    24.548999    24.548999    24.548999 
   92800    588.63002   -2796.5038   -2862.1664    231.18998     179.1448   -67.827385    582.25253    24.550527    24.550527    24.550527 
   92900    621.75325   -2796.5048   -2865.8623    -758.3373   -718.53625   -1082.2627    -474.2129     24.55191     24.55191     24.55191 
   93000    602.08103   -2796.5076   -2863.6706   -37.129487    238.36256    68.518747   -418.26977    24.552121    24.552121    24.552121 
   93100    621.89109   -2796.5064   -2865.8793   -542.86368   -597.62908   -826.01295     -204.949    24.552184    24.552184    24.552184 
   93200    607.69663   -2796.5084   -2864.2979   -199.78271    913.80701   -1407.2358   -105.91936     24.55165     24.55165     24.55165 
   93300     603.2951   -2796.5073   -2863.8058   -45.818098    659.66941   -645.27004   -151.85367    24.550939    24.550939    24.550939 
   93400    596.43266      -2796.5    -2863.033   -57.665167      276.015   -118.68613   -330.32437    24.550949    24.550949    24.550949 
   93500    593.60605   -2796.4975   -2862.7152    93.162319    673.55174      26.2673   -420.33208    24.550507    24.550507    24.550507 
   93600    605.90327   -2796.4963   -2864.0857   -161.34991   -250.24128    400.74245   -634.55088    24.549914    24.549914    24.549914 
   93700    598.35128      -2796.5    -2863.247    100.96618   -150.81927   -377.28557    831.00337     24.54905     24.54905     24.54905 
   93800    592.65488   -2796.4996   -2862.6112    383.53497    199.38909    1165.2688   -214.05303    24.549023    24.549023    24.549023 
   93900    604.59902   -2796.4996   -2863.9436    42.331033   -434.32315    575.89229   -14.576041    24.549786    24.549786    24.549786 
   94000    585.24984   -2796.5057   -2861.7912    299.49757   -1551.5507    1832.9537    617.08973    24.550506    24.550506    24.550506 
   94100    599.31768    -2796.505   -2863.3598   -146.07252   -752.82112      882.064   -567.46045    24.551779    24.551779    24.551779 
   94200    605.12801    -2796.502   -2864.0049   -240.31904   -789.53087    422.34184   -353.76809    24.552642    24.552642    24.552642 
   94300     614.7023   -2796.4957   -2865.0667    -593.9694   -861.00234   -440.99314   -479.91273    24.552947    24.552947    24.552947 
   94400    591.37996   -2796.4966    -2862.466   -99.542751   -757.87808    320.20839    139.04143    24.551661    24.551661    24.551661 
   94500    604.25576   -2796.4911   -2863.8967   -32.686211    49.039412    592.06626   -739.16431    24.550005    24.550005    24.550005 
   94600    606.85958   -2796.4911   -2864.1872    14.576731   -544.94982     517.7154    70.964619    24.548315    24.548315    24.548315 
   94700    595.13059   -2796.4974   -2862.8851    347.47718   -683.62398    1263.4916     462.5639    24.547527    24.547527    24.547527 
   94800     592.6834   -2796.5002   -2862.6149    333.71391   -461.47149    901.57414    561.03907    24.548401    24.548401    24.548401 
   94900    605.84765   -2796.5017    -2864.085   -232.84509     -434.472    190.10765   -454.17092    24.550153    24.550153    24.550153 
   95000    580.57538   -2796.5021   -2861.2662    407.10043    306.29445    156.35139    758.65545    24.551547    24.551547    24.551547 
   95100    605.41434   -2796.4964   -2864.0312   -319.45568   -804.59166    89.689884   -243.46528    24.552843    24.552843    24.552843 
   95200    585.23354   -2796.5016   -2861.7853    365.82865    1.4978801    935.78812    160.19995    24.552857    24.552857    24.552857 
   95300     591.2681   -2796.5027   -2862.4596     239.3155     887.1923    849.12232   -1018.3681    24.552616    24.552616    24.552616 
   95400    600.73147   -2796.5048   -2863.5173   -31.859603    739.33944   -499.04594   -335.87231    24.552228    24.552228    24.552228 
   95500    595.62948   -2796.5047   -2862.9481    39.473262   -60.473229   -4.4021845     183.2952    24.551799    24.551799    24.551799 
   95600    587.84516   -2796.5104   -2862.0854    273.48734    389.48917    879.08376   -448.11091    24.550951    24.550951    24.550951 
   95700    591.69868   -2796.5167   -2862.5216    239.73384    214.26857     132.5283    372.40466    24.550177    24.550177    24.550177 
   95800    585.13295   -2796.5237   -2861.7961    465.80489    442.84323    1147.5097   -192.93823    24.549424    24.549424    24.549424 
   95900     592.9737   -2796.5245   -2862.6716    225.15553    593.59248    262.04942   -180.17529    24.549725    24.549725    24.549725 
   96000    614.60941   -2796.5236   -2865.0842   -305.83418    254.85437    99.545032   -1271.9019    24.550641    24.550641    24.550641 
   96100    596.91235   -2796.5247   -2863.1112    40.818121   -126.34525   -259.37825    508.17787    24.551858    24.551858    24.551858 
   96200    593.59277    -2796.527   -2862.7432   -105.69811   -486.88935   -689.21511    859.01012    24.552859    24.552859    24.552859 
   96300    595.33521   -2796.5326   -2862.9431   -150.34093   -437.94097   -246.09547    233.01364    24.552672    24.552672    24.552672 
   96400    584.36079   -2796.5281   -2861.7145    247.59142   -136.56764    590.76515    288.57675    24.551909    24.551909    24.551909 
   96500     590.4384   -2796.5216   -2862.3859    377.67758     469.5914    797.15487   -133.71353    24.550781    24.550781    24.550781 
   96600    601.35202   -2796.5185   -2863.6002    58.932126    402.70221   -454.56568    228.65985    24.549919    24.549919    24.549919 
   96700    601.74017   -2796.5148   -2863.6398   -4.7302608    134.20055    370.79016   -519.18149    24.549734    24.549734    24.549734 
   96800    597.94445   -2796.5157   -2863.2173    40.160018    417.29559   -226.22953   -70.586008    24.550021    24.550021    24.550021 
   96900     614.8603    -2796.509   -2865.0976   -329.87086   -959.59985    13.314995   -43.327739    24.551247    24.551247    24.551247 
   97000    605.70512   -2796.5089   -2864.0762   -274.20153   -782.07145   -547.10684     506.5737    24.552008    24.552008    24.552008 
   97100    596.60341   -2796.5081   -2863.0601    35.587906   -384.02933   -249.82035    740.61339    24.552268    24.552268    24.552268 
   97200      605.748   -2796.5035   -2864.0756   -308.98251     373.9432   -282.74043   -1018.1503    24.552368    24.552368    24.552368 
   97300    583.43431   -2796.4997   -2861.5827    271.06357    405.17547   -385.24956     793.2648    24.551823    24.551823    24.551823 
   97400    608.96535   -2796.4952   -2864.4262   -312.13685   -630.96809   -899.53153    594.08907     24.55083     24.55083     24.55083 
   97500    601.90042   -2796.4921    -2863.635   -11.764602    969.86631    34.413422   -1039.5735    24.549582    24.549582    24.549582 
   97600    587.88392   -2796.4808   -2862.0601    304.71547   -947.42638    1239.9299    621.64291    24.549455    24.549455    24.549455 
   97700    596.95188   -2796.4785   -2863.0694    220.24058   -123.84715    953.99375   -169.42486    24.549433    24.549433    24.549433 
   97800    598.63175   -2796.4753   -2863.2535    24.167804    132.44824   -565.37908    505.43425    24.549841    24.549841    24.549841 
   97900    591.01063   -2796.4699    -2862.398    218.30719   -497.60561    270.81971    881.70746    24.550396    24.550396    24.550396 
   98000    585.66637   -2796.4593   -2861.7913    232.98146     1161.016   -974.81391    512.74229     24.55139     24.55139     24.55139 
   98100    588.46157   -2796.4593    -2862.103    243.88696    580.34908   -93.286295     244.5981    24.551743    24.551743    24.551743 
   98200    600.36389   -2796.4605    -2863.432   -43.187656   -643.85272    503.23328    11.056477    24.551789    24.551789    24.551789 
   98300    598.79326   -2796.4563   -2863.2526    196.64253    370.82598    544.59746   -325.49584    24.551823    24.551823    24.551823 
   98400    593.97025   -2796.4528   -2862.7111    59.741875   -507.87026   -187.38777    874.48365     24.55201     24.55201     24.55201 
   98500     609.3356   -2796.4507    -2864.423   -282.66817    201.32614   -220.61028   -828.72036    24.551581    24.551581    24.551581 
   98600    606.07635   -2796.4551   -2864.0638   -8.4922127   -288.10628   -589.56772    852.19736    24.550814    24.550814    24.550814 
   98700    606.94897    -2796.462   -2864.1681   -12.089805    167.77392   -86.583664   -117.45967    24.550654    24.550654    24.550654 
   98800    600.91105   -2796.4667   -2863.4992    36.150517   -90.571281    369.41908   -170.39625    24.551017    24.551017    24.551017 
   98900    572.79578   -2796.4762   -2860.3724    785.28287     1111.169   -10.181487    1254.8611    24.551614    24.551614    24.551614 
   99000    608.92437   -2796.4808   -2864.4073   -387.97983   -292.62836   -1066.0945    194.78343    24.552881    24.552881    24.552881 
   99100    601.69793   -2796.4836   -2863.6039   -57.876213    563.44855   -426.87836   -310.19883     24.55372     24.55372     24.55372 
   99200    584.22314    -2796.493   -2861.6639    331.94195    51.238068    242.31426    702.27351    24.553457    24.553457    24.553457 
   99300    595.78709   -2796.4994   -2862.9603   -129.41815     -784.854    -409.9189    806.51846    24.552506    24.552506    24.552506 
   99400    580.99738   -2796.5032   -2861.3143    534.06509    102.07694     262.1874    1237.9309    24.550876    24.550876    24.550876 
   99500    616.37987   -2796.5057   -2865.2638   -209.76104    -773.3465   -188.00997    332.07337    24.549821    24.549821    24.549821 
   99600    563.69647   -2796.5121   -2859.3933    1058.1312    1007.5211    950.27913    1216.5934    24.549063    24.549063    24.549063 
   99700    611.58368   -2796.5091   -2864.7322   -312.81544   -560.84002   -661.95683    284.35053    24.550023    24.550023    24.550023 
   99800    589.23275   -2796.5083   -2862.2381    446.63534    67.532906    257.12603    1015.2471    24.551274    24.551274    24.551274 
   99900     588.7711     -2796.51   -2862.1883    122.38379   -135.66867   -447.27873    950.09877    24.552622    24.552622    24.552622 
  100000    604.82595   -2796.5091   -2863.9783    -298.6496    176.88482    -512.1952   -560.63843    24.553468    24.553468    24.553468 
Loop time of 67.9107 on 20 procs for 100000 steps with 864 atoms

Performance: 127.226 ns/day, 0.189 hours/ns, 1472.522 timesteps/s
90.0% CPU use with 20 MPI tasks x no OpenMP threads

MPI task timing breakdown:
Section |  min time  |  avg time  |  max time  |%varavg| %total
---------------------------------------------------------------
Pair    | 28.393     | 29.645     | 34.671     |  26.5 | 43.65
Neigh   | 0.71541    | 0.86915    | 1.5717     |  20.0 |  1.28
Comm    | 14.911     | 22.298     | 26.566     |  81.0 | 32.83
Output  | 0.4817     | 0.49139    | 0.58806    |   3.2 |  0.72
Modify  | 11.293     | 14.478     | 20.875     |  90.8 | 21.32
Other   |            | 0.1291     |            |       |  0.19

Nlocal:    43.2 ave 57 max 33 min
Histogram: 4 2 2 1 2 3 2 1 1 2
Nghost:    720.35 ave 737 max 704 min
Histogram: 2 2 3 3 1 1 1 1 2 4
Neighs:    1657.45 ave 2176 max 1246 min
Histogram: 4 2 2 3 0 3 1 0 3 2

Total # of neighbors = 33149
Ave neighs/atom = 38.3669
Neighbor list builds = 10000
Dangerous builds not checked
Total wall time: 0:01:09
